    2    2    1    2
  0.2186161E+02  0.2467196E-09  0.2467196E-09  0.8294196E-09  0.1000000E-15
  1.000000000000000E-004
  CAR 
 Band                                    
      8    300     32
 
  0.0000000E+00  0.0000000E+00  0.0000000E+00  0.3333333E-02
    1      -20.134650    -20.134650   1.000000   1.000000
    2       -8.238957     -8.238957   1.000000   1.000000
    3       -3.662701     -3.662701   1.000000   1.000000
    4       -3.662675     -3.662675   1.000000   1.000000
    5        2.364340      2.364009   0.000000   0.000000
    6        4.827220      4.827192   0.000000   0.000000
    7        6.675456      6.674621   0.000000   0.000000
    8        7.678549      7.678549   0.000000   0.000000
    9        7.678566      7.678566   0.000000   0.000000
   10       10.767076     10.767076   0.000000   0.000000
   11       11.834052     11.834052   0.000000   0.000000
   12       13.684917     13.684837   0.000000   0.000000
   13       16.542036     16.541372   0.000000   0.000000
   14       21.841830     21.841830   0.000000   0.000000
   15       25.984353     25.984264   0.000000   0.000000
   16       27.534778     27.534778   0.000000   0.000000
   17       27.534791     27.534791   0.000000   0.000000
   18       30.959023     30.959022   0.000000   0.000000
   19       30.959031     30.959030   0.000000   0.000000
   20       31.262024     31.261442   0.000000   0.000000
   21       32.971943     32.971906   0.000000   0.000000
   22       34.395671     34.395519   0.000000   0.000000
   23       34.395674     34.395520   0.000000   0.000000
   24       34.858632     34.858411   0.000000   0.000000
   25       34.858633     34.858411   0.000000   0.000000
   26       35.286975     35.286640   0.000000   0.000000
   27       35.856889     35.856389   0.000000   0.000000
   28       36.474479     36.474462   0.000000   0.000000
   29       38.445180     38.444319   0.000000   0.000000
   30       38.445406     38.444442   0.000000   0.000000
   31       38.517360     38.517109   0.000000   0.000000
   32       38.517673     38.517142   0.000000   0.000000
 
  0.5050505E-02  0.0000000E+00  0.0000000E+00  0.3333333E-02
    1      -20.134048    -20.134048   1.000000   1.000000
    2       -8.238237     -8.238237   1.000000   1.000000
    3       -3.665216     -3.665215   1.000000   1.000000
    4       -3.664015     -3.664014   1.000000   1.000000
    5        2.365160      2.364829   0.000000   0.000000
    6        4.828019      4.827991   0.000000   0.000000
    7        6.676211      6.675376   0.000000   0.000000
    8        7.679004      7.679004   0.000000   0.000000
    9        7.681201      7.681201   0.000000   0.000000
   10       10.764952     10.764952   0.000000   0.000000
   11       11.835108     11.835108   0.000000   0.000000
   12       13.685599     13.685519   0.000000   0.000000
   13       16.542825     16.542161   0.000000   0.000000
   14       21.843831     21.843831   0.000000   0.000000
   15       25.982587     25.982498   0.000000   0.000000
   16       27.527769     27.527769   0.000000   0.000000
   17       27.529323     27.529323   0.000000   0.000000
   18       30.951795     30.951793   0.000000   0.000000
   19       30.967540     30.967539   0.000000   0.000000
   20       31.262699     31.262117   0.000000   0.000000
   21       32.990788     32.990751   0.000000   0.000000
   22       34.299245     34.299078   0.000000   0.000000
   23       34.345570     34.345410   0.000000   0.000000
   24       34.859934     34.859704   0.000000   0.000000
   25       34.910137     34.909922   0.000000   0.000000
   26       35.338637     35.338312   0.000000   0.000000
   27       35.898275     35.897788   0.000000   0.000000
   28       36.454410     36.454393   0.000000   0.000000
   29       38.340527     38.339691   0.000000   0.000000
   30       38.369029     38.368178   0.000000   0.000000
   31       38.488692     38.488686   0.000000   0.000000
   32       38.506100     38.506144   0.000000   0.000000
 
  0.1010101E-01  0.0000000E+00  0.0000000E+00  0.3333333E-02
    1      -20.132242    -20.132242   1.000000   1.000000
    2       -8.236079     -8.236079   1.000000   1.000000
    3       -3.672778     -3.672777   1.000000   1.000000
    4       -3.668009     -3.668009   1.000000   1.000000
    5        2.367619      2.367288   0.000000   0.000000
    6        4.830414      4.830386   0.000000   0.000000
    7        6.678475      6.677641   0.000000   0.000000
    8        7.680319      7.680319   0.000000   0.000000
    9        7.689140      7.689140   0.000000   0.000000
   10       10.758354     10.758354   0.000000   0.000000
   11       11.838279     11.838279   0.000000   0.000000
   12       13.687628     13.687548   0.000000   0.000000
   13       16.545191     16.544527   0.000000   0.000000
   14       21.849826     21.849826   0.000000   0.000000
   15       25.977112     25.977023   0.000000   0.000000
   16       27.506924     27.506924   0.000000   0.000000
   17       27.513166     27.513166   0.000000   0.000000
   18       30.931147     30.931143   0.000000   0.000000
   19       30.992871     30.992870   0.000000   0.000000
   20       31.264723     31.264141   0.000000   0.000000
   21       33.046149     33.046113   0.000000   0.000000
   22       34.085488     34.085301   0.000000   0.000000
   23       34.232502     34.232334   0.000000   0.000000
   24       34.816617     34.816357   0.000000   0.000000
   25       35.027399     35.027192   0.000000   0.000000
   26       35.474203     35.473894   0.000000   0.000000
   27       36.012790     36.012333   0.000000   0.000000
   28       36.395427     36.395409   0.000000   0.000000
   29       38.141983     38.141139   0.000000   0.000000
   30       38.232162     38.231313   0.000000   0.000000
   31       38.412737     38.412663   0.000000   0.000000
   32       38.447346     38.447302   0.000000   0.000000
 
  0.1515152E-01  0.0000000E+00  0.0000000E+00  0.3333333E-02
    1      -20.129248    -20.129248   1.000000   1.000000
    2       -8.232482     -8.232482   1.000000   1.000000
    3       -3.685352     -3.685352   1.000000   1.000000
    4       -3.674653     -3.674653   1.000000   1.000000
    5        2.371717      2.371386   0.000000   0.000000
    6        4.834404      4.834376   0.000000   0.000000
    7        6.682250      6.681416   0.000000   0.000000
    8        7.682235      7.682235   0.000000   0.000000
    9        7.702269      7.702269   0.000000   0.000000
   10       10.747742     10.747742   0.000000   0.000000
   11       11.843576     11.843576   0.000000   0.000000
   12       13.691001     13.690921   0.000000   0.000000
   13       16.549134     16.548470   0.000000   0.000000
   14       21.859799     21.859799   0.000000   0.000000
   15       25.967513     25.967425   0.000000   0.000000
   16       27.472842     27.472842   0.000000   0.000000
   17       27.486955     27.486954   0.000000   0.000000
   18       30.899888     30.899883   0.000000   0.000000
   19       31.034409     31.034407   0.000000   0.000000
   20       31.268090     31.267508   0.000000   0.000000
   21       33.134887     33.134853   0.000000   0.000000
   22       33.827800     33.827597   0.000000   0.000000
   23       34.096413     34.096239   0.000000   0.000000
   24       34.725267     34.724981   0.000000   0.000000
   25       35.170359     35.170158   0.000000   0.000000
   26       35.638703     35.638392   0.000000   0.000000
   27       36.182876     36.182457   0.000000   0.000000
   28       36.301332     36.301313   0.000000   0.000000
   29       37.917831     37.916993   0.000000   0.000000
   30       38.084715     38.083865   0.000000   0.000000
   31       38.306641     38.306604   0.000000   0.000000
   32       38.310972     38.310930   0.000000   0.000000
 
  0.2020202E-01  0.0000000E+00  0.0000000E+00  0.3333333E-02
    1      -20.125035    -20.125034   1.000000   1.000000
    2       -8.227446     -8.227446   1.000000   1.000000
    3       -3.702914     -3.702914   1.000000   1.000000
    4       -3.683930     -3.683930   1.000000   1.000000
    5        2.377454      2.377123   0.000000   0.000000
    6        4.839991      4.839963   0.000000   0.000000
    7        6.687535      6.686701   0.000000   0.000000
    8        7.685221      7.685220   0.000000   0.000000
    9        7.720726      7.720726   0.000000   0.000000
   10       10.732457     10.732457   0.000000   0.000000
   11       11.851015     11.851015   0.000000   0.000000
   12       13.695735     13.695655   0.000000   0.000000
   13       16.554652     16.553988   0.000000   0.000000
   14       21.873725     21.873725   0.000000   0.000000
   15       25.953360     25.953272   0.000000   0.000000
   16       27.426465     27.426465   0.000000   0.000000
   17       27.451770     27.451770   0.000000   0.000000
   18       30.861653     30.861645   0.000000   0.000000
   19       31.091217     31.091216   0.000000   0.000000
   20       31.272808     31.272227   0.000000   0.000000
   21       33.252836     33.252804   0.000000   0.000000
   22       33.551771     33.551557   0.000000   0.000000
   23       33.952117     33.951939   0.000000   0.000000
   24       34.609465     34.609159   0.000000   0.000000
   25       35.324240     35.324042   0.000000   0.000000
   26       35.794424     35.794097   0.000000   0.000000
   27       36.176400     36.176380   0.000000   0.000000
   28       36.392568     36.392184   0.000000   0.000000
   29       37.688450     37.687623   0.000000   0.000000
   30       37.935273     37.934426   0.000000   0.000000
   31       38.129476     38.129433   0.000000   0.000000
   32       38.183891     38.183856   0.000000   0.000000
 
  0.2525253E-01  0.0000000E+00  0.0000000E+00  0.3333333E-02
    1      -20.119610    -20.119610   1.000000   1.000000
    2       -8.220971     -8.220971   1.000000   1.000000
    3       -3.725417     -3.725417   1.000000   1.000000
    4       -3.695795     -3.695794   1.000000   1.000000
    5        2.384831      2.384500   0.000000   0.000000
    6        4.847180      4.847152   0.000000   0.000000
    7        6.694330      6.693496   0.000000   0.000000
    8        7.688975      7.688974   0.000000   0.000000
    9        7.744414      7.744414   0.000000   0.000000
   10       10.713421     10.713421   0.000000   0.000000
   11       11.860621     11.860621   0.000000   0.000000
   12       13.701858     13.701778   0.000000   0.000000
   13       16.561742     16.561078   0.000000   0.000000
   14       21.891573     21.891573   0.000000   0.000000
   15       25.933866     25.933780   0.000000   0.000000
   16       27.368929     27.368929   0.000000   0.000000
   17       27.409120     27.409119   0.000000   0.000000
   18       30.820062     30.820051   0.000000   0.000000
   19       31.162147     31.162146   0.000000   0.000000
   20       31.278871     31.278289   0.000000   0.000000
   21       33.266775     33.266551   0.000000   0.000000
   22       33.395613     33.395583   0.000000   0.000000
   23       33.804796     33.804615   0.000000   0.000000
   24       34.481748     34.481428   0.000000   0.000000
   25       35.483853     35.483657   0.000000   0.000000
   26       35.925501     35.925145   0.000000   0.000000
   27       36.025788     36.025767   0.000000   0.000000
   28       36.625867     36.625510   0.000000   0.000000
   29       37.467919     37.467111   0.000000   0.000000
   30       37.786019     37.785174   0.000000   0.000000
   31       37.936580     37.936539   0.000000   0.000000
   32       38.052193     38.052170   0.000000   0.000000
 
  0.3030303E-01  0.0000000E+00  0.0000000E+00  0.3333333E-02
    1      -20.112976    -20.112975   1.000000   1.000000
    2       -8.213059     -8.213059   1.000000   1.000000
    3       -3.752792     -3.752792   1.000000   1.000000
    4       -3.710216     -3.710216   1.000000   1.000000
    5        2.393847      2.393516   0.000000   0.000000
    6        4.855970      4.855943   0.000000   0.000000
    7        6.702636      6.701803   0.000000   0.000000
    8        7.693507      7.693505   0.000000   0.000000
    9        7.773284      7.773284   0.000000   0.000000
   10       10.690584     10.690584   0.000000   0.000000
   11       11.872431     11.872431   0.000000   0.000000
   12       13.709363     13.709283   0.000000   0.000000
   13       16.570403     16.569739   0.000000   0.000000
   14       21.913300     21.913300   0.000000   0.000000
   15       25.907938     25.907854   0.000000   0.000000
   16       27.301484     27.301484   0.000000   0.000000
   17       27.360940     27.360938   0.000000   0.000000
   18       30.778229     30.778215   0.000000   0.000000
   19       31.245922     31.245921   0.000000   0.000000
   20       31.286274     31.285692   0.000000   0.000000
   21       32.977019     32.976787   0.000000   0.000000
   22       33.559241     33.559213   0.000000   0.000000
   23       33.656551     33.656369   0.000000   0.000000
   24       34.348065     34.347734   0.000000   0.000000
   25       35.646874     35.646679   0.000000   0.000000
   26       35.853628     35.853607   0.000000   0.000000
   27       36.018191     36.017789   0.000000   0.000000
   28       36.867662     36.867319   0.000000   0.000000
   29       37.274505     37.273736   0.000000   0.000000
   30       37.637877     37.637033   0.000000   0.000000
   31       37.745506     37.745461   0.000000   0.000000
   32       37.915805     37.915768   0.000000   0.000000
 
  0.3535354E-01  0.0000000E+00  0.0000000E+00  0.3333333E-02
    1      -20.105145    -20.105144   1.000000   1.000000
    2       -8.203711     -8.203711   1.000000   1.000000
    3       -3.785030     -3.785029   1.000000   1.000000
    4       -3.727150     -3.727150   1.000000   1.000000
    5        2.404503      2.404172   0.000000   0.000000
    6        4.866353      4.866325   0.000000   0.000000
    7        6.712451      6.711618   0.000000   0.000000
    8        7.698517      7.698515   0.000000   0.000000
    9        7.807279      7.807279   0.000000   0.000000
   10       10.663103     10.663103   0.000000   0.000000
   11       11.886456     11.886457   0.000000   0.000000
   12       13.718187     13.718107   0.000000   0.000000
   13       16.580629     16.579965   0.000000   0.000000
   14       21.938797     21.938798   0.000000   0.000000
   15       25.874047     25.873964   0.000000   0.000000
   16       27.225402     27.225402   0.000000   0.000000
   17       27.309380     27.309376   0.000000   0.000000
   18       30.738319     30.738303   0.000000   0.000000
   19       31.295001     31.294419   0.000000   0.000000
   20       31.341224     31.341223   0.000000   0.000000
   21       32.684679     32.684440   0.000000   0.000000
   22       33.508350     33.508166   0.000000   0.000000
   23       33.740219     33.740193   0.000000   0.000000
   24       34.211183     34.210844   0.000000   0.000000
   25       35.663487     35.663464   0.000000   0.000000
   26       35.812034     35.811839   0.000000   0.000000
   27       36.048817     36.048336   0.000000   0.000000
   28       37.098551     37.098189   0.000000   0.000000
   29       37.140189     37.139511   0.000000   0.000000
   30       37.491403     37.490562   0.000000   0.000000
   31       37.560815     37.560770   0.000000   0.000000
   32       37.777133     37.777096   0.000000   0.000000
 
  0.4040404E-01  0.0000000E+00  0.0000000E+00  0.3333333E-02
    1      -20.096100    -20.096100   1.000000   1.000000
    2       -8.192925     -8.192925   1.000000   1.000000
    3       -3.821989     -3.821989   1.000000   1.000000
    4       -3.746529     -3.746529   1.000000   1.000000
    5        2.416798      2.416467   0.000000   0.000000
    6        4.878335      4.878307   0.000000   0.000000
    7        6.723776      6.722944   0.000000   0.000000
    8        7.704157      7.704154   0.000000   0.000000
    9        7.846402      7.846402   0.000000   0.000000
   10       10.632007     10.632007   0.000000   0.000000
   11       11.902763     11.902763   0.000000   0.000000
   12       13.728387     13.728307   0.000000   0.000000
   13       16.592418     16.591754   0.000000   0.000000
   14       21.968086     21.968086   0.000000   0.000000
   15       25.831012     25.830932   0.000000   0.000000
   16       27.141929     27.141929   0.000000   0.000000
   17       27.257010     27.257004   0.000000   0.000000
   18       30.701990     30.701972   0.000000   0.000000
   19       31.305043     31.304462   0.000000   0.000000
   20       31.446846     31.446845   0.000000   0.000000
   21       32.391130     32.390885   0.000000   0.000000
   22       33.360765     33.360580   0.000000   0.000000
   23       33.935689     33.935665   0.000000   0.000000
   24       34.072788     34.072442   0.000000   0.000000
   25       35.458891     35.458867   0.000000   0.000000
   26       35.978412     35.978215   0.000000   0.000000
   27       35.991659     35.991074   0.000000   0.000000
   28       37.078529     37.077944   0.000000   0.000000
   29       37.317344     37.316964   0.000000   0.000000
   30       37.347333     37.346496   0.000000   0.000000
   31       37.384218     37.384173   0.000000   0.000000
   32       37.637617     37.637580   0.000000   0.000000
 
  0.4545455E-01  0.0000000E+00  0.0000000E+00  0.3333333E-02
    1      -20.085861    -20.085860   1.000000   1.000000
    2       -8.180706     -8.180706   1.000000   1.000000
    3       -3.863630     -3.863630   1.000000   1.000000
    4       -3.768327     -3.768327   1.000000   1.000000
    5        2.430732      2.430401   0.000000   0.000000
    6        4.891908      4.891880   0.000000   0.000000
    7        6.736609      6.735778   0.000000   0.000000
    8        7.710210      7.710206   0.000000   0.000000
    9        7.890440      7.890440   0.000000   0.000000
   10       10.596357     10.596357   0.000000   0.000000
   11       11.921367     11.921367   0.000000   0.000000
   12       13.739897     13.739817   0.000000   0.000000
   13       16.605764     16.605100   0.000000   0.000000
   14       22.001005     22.001005   0.000000   0.000000
   15       25.777239     25.777163   0.000000   0.000000
   16       27.052183     27.052182   0.000000   0.000000
   17       27.206121     27.206112   0.000000   0.000000
   18       30.670193     30.670172   0.000000   0.000000
   19       31.316339     31.315758   0.000000   0.000000
   20       31.561481     31.561480   0.000000   0.000000
   21       32.097103     32.096852   0.000000   0.000000
   22       33.214079     33.213893   0.000000   0.000000
   23       33.933723     33.933370   0.000000   0.000000
   24       34.143066     34.143043   0.000000   0.000000
   25       35.242725     35.242699   0.000000   0.000000
   26       35.848156     35.847483   0.000000   0.000000
   27       36.144248     36.144044   0.000000   0.000000
   28       37.105080     37.104578   0.000000   0.000000
   29       37.206831     37.206002   0.000000   0.000000
   30       37.216085     37.216040   0.000000   0.000000
   31       37.487253     37.486819   0.000000   0.000000
   32       37.498162     37.498125   0.000000   0.000000
 
  0.5050505E-01  0.0000000E+00  0.0000000E+00  0.3333333E-02
    1      -20.074413    -20.074413   1.000000   1.000000
    2       -8.167052     -8.167052   1.000000   1.000000
    3       -3.909829     -3.909829   1.000000   1.000000
    4       -3.792445     -3.792445   1.000000   1.000000
    5        2.446307      2.445976   0.000000   0.000000
    6        4.907075      4.907048   0.000000   0.000000
    7        6.750949      6.750119   0.000000   0.000000
    8        7.716628      7.716624   0.000000   0.000000
    9        7.939461      7.939461   0.000000   0.000000
   10       10.556816     10.556816   0.000000   0.000000
   11       11.942327     11.942327   0.000000   0.000000
   12       13.752745     13.752665   0.000000   0.000000
   13       16.620664     16.620000   0.000000   0.000000
   14       22.037540     22.037540   0.000000   0.000000
   15       25.711684     25.711613   0.000000   0.000000
   16       26.957207     26.957207   0.000000   0.000000
   17       27.159059     27.159046   0.000000   0.000000
   18       30.643417     30.643394   0.000000   0.000000
   19       31.328711     31.328131   0.000000   0.000000
   20       31.684116     31.684115   0.000000   0.000000
   21       31.803447     31.803189   0.000000   0.000000
   22       33.068496     33.068308   0.000000   0.000000
   23       33.794504     33.794146   0.000000   0.000000
   24       34.359293     34.359273   0.000000   0.000000
   25       35.018745     35.018719   0.000000   0.000000
   26       35.647458     35.646731   0.000000   0.000000
   27       36.306916     36.306695   0.000000   0.000000
   28       37.056244     37.056199   0.000000   0.000000
   29       37.072752     37.071941   0.000000   0.000000
   30       37.183290     37.182833   0.000000   0.000000
   31       37.359388     37.359351   0.000000   0.000000
   32       37.598407     37.597901   0.000000   0.000000
 
  0.5555556E-01  0.0000000E+00  0.0000000E+00  0.3333333E-02
    1      -20.061763    -20.061763   1.000000   1.000000
    2       -8.151965     -8.151965   1.000000   1.000000
    3       -3.960495     -3.960495   1.000000   1.000000
    4       -3.818821     -3.818821   1.000000   1.000000
    5        2.463521      2.463190   0.000000   0.000000
    6        4.923836      4.923808   0.000000   0.000000
    7        6.766793      6.765964   0.000000   0.000000
    8        7.723289      7.723283   0.000000   0.000000
    9        7.993344      7.993344   0.000000   0.000000
   10       10.513320     10.513320   0.000000   0.000000
   11       11.965683     11.965683   0.000000   0.000000
   12       13.766921     13.766841   0.000000   0.000000
   13       16.637111     16.636447   0.000000   0.000000
   14       22.077558     22.077558   0.000000   0.000000
   15       25.633564     25.633498   0.000000   0.000000
   16       26.857911     26.857911   0.000000   0.000000
   17       27.117645     27.117627   0.000000   0.000000
   18       30.621807     30.621783   0.000000   0.000000
   19       31.340632     31.340056   0.000000   0.000000
   20       31.512045     31.511777   0.000000   0.000000
   21       31.813754     31.813753   0.000000   0.000000
   22       32.924137     32.923948   0.000000   0.000000
   23       33.655431     33.655068   0.000000   0.000000
   24       34.571074     34.571055   0.000000   0.000000
   25       34.800797     34.800769   0.000000   0.000000
   26       35.415562     35.414805   0.000000   0.000000
   27       36.456862     36.456587   0.000000   0.000000
   28       36.904278     36.904234   0.000000   0.000000
   29       36.954428     36.953674   0.000000   0.000000
   30       37.221739     37.221702   0.000000   0.000000
   31       37.281299     37.280848   0.000000   0.000000
   32       37.654723     37.654162   0.000000   0.000000
 
  0.6060606E-01  0.0000000E+00  0.0000000E+00  0.3333333E-02
    1      -20.047909    -20.047909   1.000000   1.000000
    2       -8.135447     -8.135447   1.000000   1.000000
    3       -4.015520     -4.015520   1.000000   1.000000
    4       -3.847377     -3.847377   1.000000   1.000000
    5        2.482375      2.482044   0.000000   0.000000
    6        4.942189      4.942161   0.000000   0.000000
    7        6.784138      6.783310   0.000000   0.000000
    8        7.730082      7.730076   0.000000   0.000000
    9        8.052007      8.052007   0.000000   0.000000
   10       10.465927     10.465927   0.000000   0.000000
   11       11.991478     11.991479   0.000000   0.000000
   12       13.782417     13.782338   0.000000   0.000000
   13       16.655101     16.654437   0.000000   0.000000
   14       22.120947     22.120947   0.000000   0.000000
   15       25.542660     25.542598   0.000000   0.000000
   16       26.755088     26.755087   0.000000   0.000000
   17       27.083101     27.083078   0.000000   0.000000
   18       30.605270     30.605244   0.000000   0.000000
   19       31.211492     31.211216   0.000000   0.000000
   20       31.363797     31.363225   0.000000   0.000000
   21       31.949509     31.949507   0.000000   0.000000
   22       32.781088     32.780899   0.000000   0.000000
   23       33.516662     33.516293   0.000000   0.000000
   24       34.519622     34.519596   0.000000   0.000000
   25       34.848198     34.848177   0.000000   0.000000
   26       35.167333     35.166559   0.000000   0.000000
   27       36.554983     36.554503   0.000000   0.000000
   28       36.759706     36.759662   0.000000   0.000000
   29       36.890892     36.890344   0.000000   0.000000
   30       37.085566     37.085528   0.000000   0.000000
   31       37.366124     37.365621   0.000000   0.000000
   32       37.689695     37.689146   0.000000   0.000000
 
  0.6565657E-01  0.0000000E+00  0.0000000E+00  0.3333333E-02
    1      -20.032853    -20.032853   1.000000   1.000000
    2       -8.117499     -8.117499   1.000000   1.000000
    3       -4.074787     -4.074787   1.000000   1.000000
    4       -3.878033     -3.878033   1.000000   1.000000
    5        2.502868      2.502538   0.000000   0.000000
    6        4.962133      4.962106   0.000000   0.000000
    7        6.802978      6.802151   0.000000   0.000000
    8        7.736901      7.736893   0.000000   0.000000
    9        8.115361      8.115361   0.000000   0.000000
   10       10.414697     10.414697   0.000000   0.000000
   11       12.019754     12.019754   0.000000   0.000000
   12       13.799227     13.799148   0.000000   0.000000
   13       16.674626     16.673962   0.000000   0.000000
   14       22.167583     22.167584   0.000000   0.000000
   15       25.439329     25.439273   0.000000   0.000000
   16       26.649423     26.649423   0.000000   0.000000
   17       27.055987     27.055960   0.000000   0.000000
   18       30.593550     30.593524   0.000000   0.000000
   19       30.922231     30.921958   0.000000   0.000000
   20       31.377992     31.377413   0.000000   0.000000
   21       32.090579     32.090578   0.000000   0.000000
   22       32.639412     32.639222   0.000000   0.000000
   23       33.378242     33.377868   0.000000   0.000000
   24       34.284383     34.284354   0.000000   0.000000
   25       34.910504     34.909720   0.000000   0.000000
   26       35.081957     35.081938   0.000000   0.000000
   27       36.528080     36.527341   0.000000   0.000000
   28       36.622077     36.622033   0.000000   0.000000
   29       36.951167     36.951129   0.000000   0.000000
   30       36.955278     36.954990   0.000000   0.000000
   31       37.396885     37.396275   0.000000   0.000000
   32       37.755109     37.754641   0.000000   0.000000
 
  0.7070707E-01  0.0000000E+00  0.0000000E+00  0.3333333E-02
    1      -20.016595    -20.016595   1.000000   1.000000
    2       -8.098123     -8.098123   1.000000   1.000000
    3       -4.138176     -4.138176   1.000000   1.000000
    4       -3.910703     -3.910703   1.000000   1.000000
    5        2.525002      2.524672   0.000000   0.000000
    6        4.983668      4.983640   0.000000   0.000000
    7        6.823307      6.822481   0.000000   0.000000
    8        7.743638      7.743629   0.000000   0.000000
    9        8.183314      8.183314   0.000000   0.000000
   10       10.359696     10.359696   0.000000   0.000000
   11       12.050550     12.050550   0.000000   0.000000
   12       13.817342     13.817262   0.000000   0.000000
   13       16.695680     16.695017   0.000000   0.000000
   14       22.217330     22.217330   0.000000   0.000000
   15       25.324425     25.324374   0.000000   0.000000
   16       26.541506     26.541506   0.000000   0.000000
   17       27.036276     27.036244   0.000000   0.000000
   18       30.586295     30.586268   0.000000   0.000000
   19       30.631951     30.631675   0.000000   0.000000
   20       31.395712     31.395132   0.000000   0.000000
   21       32.236229     32.236227   0.000000   0.000000
   22       32.499153     32.498963   0.000000   0.000000
   23       33.240120     33.239741   0.000000   0.000000
   24       34.038752     34.038722   0.000000   0.000000
   25       34.649302     34.648513   0.000000   0.000000
   26       35.329021     35.329003   0.000000   0.000000
   27       36.424017     36.423201   0.000000   0.000000
   28       36.491041     36.490998   0.000000   0.000000
   29       36.818823     36.818786   0.000000   0.000000
   30       37.099667     37.099458   0.000000   0.000000
   31       37.365809     37.365118   0.000000   0.000000
   32       37.867999     37.867597   0.000000   0.000000
 
  0.7575758E-01  0.0000000E+00  0.0000000E+00  0.3333333E-02
    1      -19.999136    -19.999135   1.000000   1.000000
    2       -8.077321     -8.077321   1.000000   1.000000
    3       -4.205554     -4.205554   1.000000   1.000000
    4       -3.945298     -3.945297   1.000000   1.000000
    5        2.548776      2.548446   0.000000   0.000000
    6        5.006790      5.006763   0.000000   0.000000
    7        6.845116      6.844292   0.000000   0.000000
    8        7.750207      7.750196   0.000000   0.000000
    9        8.255786      8.255786   0.000000   0.000000
   10       10.301072     10.301072   0.000000   0.000000
   11       12.083927     12.083927   0.000000   0.000000
   12       13.836755     13.836676   0.000000   0.000000
   13       16.718258     16.717595   0.000000   0.000000
   14       22.270038     22.270039   0.000000   0.000000
   15       25.199139     25.199092   0.000000   0.000000
   16       26.431842     26.431841   0.000000   0.000000