 vasp.5.4.4.18Apr17-6-g9f103f2a35 (build Mar 10 2021 13:27:55) complex          
  
 executed on             LinuxIFC date 2021.03.11  01:41:24
 running on   64 total cores
 distrk:  each k-point on   64 cores,    1 groups
 distr:  one band on NCORES_PER_BAND=   4 cores,   16 groups


--------------------------------------------------------------------------------------------------------


 INCAR:
 POTCAR:    PAW_PBE C 08Apr2002                   
 POTCAR:    PAW_PBE C 08Apr2002                   
   VRHFIN =C: s2p2                                                              
   LEXCH  = PE                                                                  
   EATOM  =   147.1560 eV,   10.8157 Ry                                         
                                                                                
   TITEL  = PAW_PBE C 08Apr2002                                                 
   LULTRA =        F    use ultrasoft PP ?                                      
   IUNSCR =        1    unscreen: 0-lin 1-nonlin 2-no                           
   RPACOR =    1.200    partial core radius                                     
   POMASS =   12.011; ZVAL   =    4.000    mass and valenz                      
   RCORE  =    1.500    outmost cutoff radius                                   
   RWIGS  =    1.630; RWIGS  =    0.863    wigner-seitz radius (au A)           
   ENMAX  =  400.000; ENMIN  =  300.000 eV                                      
   ICORE  =        2    local potential                                         
   LCOR   =        T    correct aug charges                                     
   LPAW   =        T    paw PP                                                  
   EAUG   =  644.873                                                            
   DEXC   =    0.000                                                            
   RMAX   =    1.529    core radius for proj-oper                               
   RAUG   =    1.300    factor for augmentation sphere                          
   RDEP   =    1.501    radius for radial grids                                 
   RDEPT  =    1.300    core radius for aug-charge                              
                                                                                
   Atomic configuration                                                         
    4 entries                                                                   
     n  l   j            E        occ.                                          
     1  0  0.50      -273.3789   2.0000                                         
     2  0  0.50       -13.7508   2.0000                                         
     2  1  0.50        -5.2854   2.0000                                         
     3  2  1.50        -5.4423   0.0000                                         
   Description                                                                  
     l       E           TYP  RCUT    TYP  RCUT                                 
     0    -13.7508458     23  1.200                                             
     0     -8.2022199     23  1.200                                             
     1     -5.2854383     23  1.500                                             
     1     34.0145650     23  1.500                                             
     2     -5.4423304      7  1.500                                             
  local pseudopotential read in
  partial core-charges read in
  partial kinetic energy density read in
  atomic valenz-charges read in
  non local Contribution for L=           0  read in
    real space projection operators read in
  non local Contribution for L=           0  read in
    real space projection operators read in
  non local Contribution for L=           1  read in
    real space projection operators read in
  non local Contribution for L=           1  read in
    real space projection operators read in
    PAW grid and wavefunctions read in
 
   number of l-projection  operators is LMAX  =           4
   number of lm-projection operators is LMMAX =           8
 
  PAW_PBE C 08Apr2002                   :
 energy of atom  1       EATOM= -147.1560
 kinetic energy error for atom=    0.0076 (will be added to EATOM!!)
 
 
 POSCAR: Primitive Cell                          
  positions in direct lattice
  velocities in cartesian coordinates
 exchange correlation table for  LEXCH =        8
   RHO(1)=    0.500       N(1)  =     2000
   RHO(2)=  100.500       N(2)  =     4000
 


--------------------------------------------------------------------------------------------------------


 ion  position               nearest neighbor table
   1  0.667  0.333  0.500-   2 1.42   2 1.42   2 1.42
   2  0.333  0.667  0.500-   1 1.42   1 1.42   1 1.42
 
  LATTYP: Found a hexagonal cell.
 ALAT       =     2.4671959894
 C/A-ratio  =     3.3617905217
  
  Lattice vectors:
  
 A1 = (   2.4671959894,   0.0000000000,   0.0000000000)
 A2 = (  -1.2335979947,   2.1366544029,   0.0000000000)
 A3 = (   0.0000000000,   0.0000000000,   8.2941960924)


Analysis of symmetry for initial positions (statically):
=====================================================================
 Subroutine PRICEL returns:
 Original cell was already a primitive cell.
 

 Routine SETGRP: Setting up the symmetry group for a 
 hexagonal supercell.


 Subroutine GETGRP returns: Found 24 space group operations
 (whereof 24 operations were pure point group operations)
 out of a pool of 24 trial point group operations.


The static configuration has the point symmetry D_6h.


Analysis of symmetry for dynamics (positions and initial velocities):
=====================================================================
 Subroutine PRICEL returns:
 Original cell was already a primitive cell.
 

 Routine SETGRP: Setting up the symmetry group for a 
 hexagonal supercell.


 Subroutine GETGRP returns: Found 24 space group operations
 (whereof 24 operations were pure point group operations)
 out of a pool of 24 trial point group operations.


The dynamic configuration has the point symmetry D_6h.


Analysis of structural, dynamic, and magnetic symmetry:
=====================================================================
 Subroutine PRICEL returns:
 Original cell was already a primitive cell.
 

 Routine SETGRP: Setting up the symmetry group for a 
 hexagonal supercell.


 Subroutine GETGRP returns: Found 24 space group operations
 (whereof 24 operations were pure point group operations)
 out of a pool of 24 trial point group operations.


The magnetic configuration has the point symmetry D_6h.


 Subroutine INISYM returns: Found 24 space group operations
 (whereof 24 operations are pure point group operations),
 and found     1 'primitive' translations

 
 
 KPOINTS: K-Path Generated by VASPKIT.            
  interpolating k-points between supplied coordinates
  k-points in reciprocal lattice
Space group operators:
 irot       det(A)        alpha          n_x          n_y          n_z        tau_x        tau_y        tau_z
    1     1.000000     0.000001     1.000000     0.000000     0.000000     0.000000     0.000000     0.000000
    2    -1.000000     0.000001     1.000000     0.000000     0.000000     0.000000     0.000000     0.000000
    3     1.000000    60.000000     0.000000     0.000000    -1.000000     0.000000     0.000000     0.000000
    4    -1.000000    60.000000     0.000000     0.000000    -1.000000     0.000000     0.000000     0.000000
    5     1.000000   120.000000     0.000000     0.000000    -1.000000     0.000000     0.000000     0.000000
    6    -1.000000   120.000000     0.000000     0.000000    -1.000000     0.000000     0.000000     0.000000
    7     1.000000   179.999999     0.000000     0.000000     1.000000     0.000000     0.000000     0.000000
    8    -1.000000   179.999999     0.000000     0.000000     1.000000     0.000000     0.000000     0.000000
    9     1.000000   120.000000     0.000000     0.000000     1.000000     0.000000     0.000000     0.000000
   10    -1.000000   120.000000     0.000000     0.000000     1.000000     0.000000     0.000000     0.000000
   11     1.000000    60.000000     0.000000     0.000000     1.000000     0.000000     0.000000     0.000000
   12    -1.000000    60.000000     0.000000     0.000000     1.000000     0.000000     0.000000     0.000000
   13     1.000000   180.000000     1.000000    -0.000000     0.000000     0.000000     0.000000     0.000000
   14    -1.000000   180.000000     1.000000    -0.000000     0.000000     0.000000     0.000000     0.000000
   15     1.000000   180.000000     0.866025    -0.500000     0.000000     0.000000     0.000000     0.000000
   16    -1.000000   180.000000     0.866025    -0.500000     0.000000     0.000000     0.000000     0.000000
   17     1.000000   180.000000     0.500000    -0.866025     0.000000     0.000000     0.000000     0.000000
   18    -1.000000   180.000000     0.500000    -0.866025     0.000000     0.000000     0.000000     0.000000
   19     1.000000   179.999999     0.000000    -1.000000     0.000000     0.000000     0.000000     0.000000
   20    -1.000000   179.999999     0.000000    -1.000000     0.000000     0.000000     0.000000     0.000000
   21     1.000000   179.999999    -0.500000    -0.866025     0.000000     0.000000     0.000000     0.000000
   22    -1.000000   179.999999    -0.500000    -0.866025     0.000000     0.000000     0.000000     0.000000
   23     1.000000   180.000000     0.866025     0.500000     0.000000     0.000000     0.000000     0.000000
   24    -1.000000   180.000000     0.866025     0.500000     0.000000     0.000000     0.000000     0.000000

 ----------------------------------------------------------------------------- 
|                                                                             |
|           W    W    AA    RRRRR   N    N  II  N    N   GGGG   !!!           |
|           W    W   A  A   R    R  NN   N  II  NN   N  G    G  !!!           |
|           W    W  A    A  R    R  N N  N  II  N N  N  G       !!!           |
|           W WW W  AAAAAA  RRRRR   N  N N  II  N  N N  G  GGG   !            |
|           WW  WW  A    A  R   R   N   NN  II  N   NN  G    G                |
|           W    W  A    A  R    R  N    N  II  N    N   GGGG   !!!           |
|                                                                             |
|      The number of bands has been changed from the values supplied          |
|      in the INCAR file. This is a result of running the parallel version.   |
|      The orbitals not found in the WAVECAR file will be initialized with    |
|      random numbers, which is usually adequate. For correlated              |
|      calculations, however, you should redo the groundstate calculation.    |
|      I found NBANDS    =       20  now  NBANDS  =      32                   |
|                                                                             |
 ----------------------------------------------------------------------------- 



--------------------------------------------------------------------------------------------------------




 Dimension of arrays:
   k-points           NKPTS =    300   k-points in BZ     NKDIM =    300   number of bands    NBANDS=     32
   number of dos      NEDOS =    301   number of ions     NIONS =      2
   non local maximal  LDIM  =      4   non local SUM 2l+1 LMDIM =      8
   total plane-waves  NPLWV =  19440
   max r-space proj   IRMAX =      1   max aug-charges    IRDMAX=   5446
   dimension x,y,z NGX =    18 NGY =   18 NGZ =   60
   dimension x,y,z NGXF=    36 NGYF=   36 NGZF=  120
   support grid    NGXF=    36 NGYF=   36 NGZF=  120
   ions per type =               2
   NGX,Y,Z   is equivalent  to a cutoff of  12.13, 12.13, 12.03 a.u.
   NGXF,Y,Z  is equivalent  to a cutoff of  24.26, 24.26, 24.05 a.u.

 SYSTEM =  Band                                    
 POSCAR =  Primitive Cell                          

 Startparameter for this run:
   NWRITE =      2    write-flag & timer
   PREC   = accura    normal or accurate (medium, high low for compatibility)
   ISTART =      0    job   : 0-new  1-cont  2-samecut
   ICHARG =     11    charge: 1-file 2-atom 10-const
   ISPIN  =      2    spin polarized calculation?
   LNONCOLLINEAR =      F non collinear calculations
   LSORBIT =      F    spin-orbit coupling
   INIWAV =      1    electr: 0-lowe 1-rand  2-diag
   LASPH  =      F    aspherical Exc in radial PAW
   METAGGA=      F    non-selfconsistent MetaGGA calc.

 Electronic Relaxation 1
   ENCUT  =  500.0 eV  36.75 Ry    6.06 a.u.   4.50  4.50 15.12*2*pi/ulx,y,z
   ENINI  =  500.0     initial cutoff
   ENAUG  =  644.9 eV  augmentation charge cutoff
   NELM   =    300;   NELMIN=  6; NELMDL= -5     # of ELM steps 
   EDIFF  = 0.1E-07   stopping-criterion for ELM
   LREAL  =      F    real-space projection
   NLSPLINE    = F    spline interpolate recip. space projectors
   LCOMPAT=      F    compatible to vasp.4.4
   GGA_COMPAT  = T    GGA compatible to vasp.4.4-vasp.4.6
   LMAXPAW     = -100 max onsite density
   LMAXMIX     =    2 max onsite mixed and CHGCAR
   VOSKOWN=      0    Vosko Wilk Nusair interpolation
   ROPT   =    0.00000
 Ionic relaxation
   EDIFFG = -.1E-02   stopping-criterion for IOM
   NSW    =      0    number of steps for IOM
   NBLOCK =      1;   KBLOCK =      1    inner block; outer block 
   IBRION =     -1    ionic relax: 0-MD 1-quasi-New 2-CG
   NFREE  =      0    steps in history (QN), initial steepest desc. (CG)
   ISIF   =      3    stress and relaxation
   IWAVPR =     10    prediction:  0-non 1-charg 2-wave 3-comb
   ISYM   =      2    0-nonsym 1-usesym 2-fastsym
   LCORR  =      T    Harris-Foulkes like correction to forces

   POTIM  = 0.1000    time-step for ionic-motion
   TEIN   =    0.0    initial temperature
   TEBEG  =    0.0;   TEEND  =   0.0 temperature during run
   SMASS  =  -3.00    Nose mass-parameter (am)
   estimated Nose-frequenzy (Omega)   =  0.10E-29 period in steps =****** mass=  -0.139E-27a.u.
   SCALEE = 1.0000    scale energy and forces
   NPACO  =    256;   APACO  = 16.0  distance and # of slots for P.C.
   PSTRESS=    0.0 pullay stress

  Mass of Ions in am
   POMASS =  12.01
  Ionic Valenz
   ZVAL   =   4.00
  Atomic Wigner-Seitz radii
   RWIGS  =  -1.00
  virtual crystal weights 
   VCA    =   1.00
   NELECT =       8.0000    total number of electrons
   NUPDOWN=      -1.0000    fix difference up-down

 DOS related values:
   EMIN   =  10.00;   EMAX   =-10.00  energy-range for DOS
   EFERMI =   0.00
   ISMEAR =     0;   SIGMA  =   0.05  broadening in eV -4-tet -1-fermi 0-gaus

 Electronic relaxation 2 (details)
   IALGO  =     38    algorithm
   LDIAG  =      T    sub-space diagonalisation (order eigenvalues)
   LSUBROT=      F    optimize rotation matrix (better conditioning)
   TURBO    =      0    0=normal 1=particle mesh
   IRESTART =      0    0=no restart 2=restart with 2 vectors
   NREBOOT  =      0    no. of reboots
   NMIN     =      0    reboot dimension
   EREF     =   0.00    reference energy to select bands
   IMIX   =      4    mixing-type and parameters
     AMIX     =   0.40;   BMIX     =  1.00
     AMIX_MAG =   1.60;   BMIX_MAG =  1.00
     AMIN     =   0.10
     WC   =   100.;   INIMIX=   1;  MIXPRE=   1;  MAXMIX= -45

 Intra band minimization:
   WEIMIN = 0.0000     energy-eigenvalue tresh-hold
   EBREAK =  0.78E-10  absolut break condition
   DEPER  =   0.30     relativ break condition  

   TIME   =   0.40     timestep for ELM

  volume/ion in A,a.u.               =      21.86       147.53
  Fermi-wavevector in a.u.,A,eV,Ry     =   0.929396  1.756304 11.752396  0.863777
  Thomas-Fermi vector in A             =   2.055674
 
 Write flags
   LWAVE        =      F    write WAVECAR
   LDOWNSAMPLE  =      F    k-point downsampling of WAVECAR
   LCHARG       =      F    write CHGCAR
   LVTOT        =      F    write LOCPOT, total local potential
   LVHAR        =      F    write LOCPOT, Hartree potential only
   LELF         =      F    write electronic localiz. function (ELF)
   LORBIT       =     11    0 simple, 1 ext, 2 COOP (PROOUT), +10 PAW based schemes


 Dipole corrections
   LMONO  =      F    monopole corrections only (constant potential shift)
   LDIPOL =      F    correct potential (dipole corrections)
   IDIPOL =      0    1-x, 2-y, 3-z, 4-all directions 
   EPSILON=  1.0000000 bulk dielectric constant

 Exchange correlation treatment:
   GGA     =    --    GGA type
   LEXCH   =     8    internal setting for exchange type
   VOSKOWN=      0    Vosko Wilk Nusair interpolation
   LHFCALC =     F    Hartree Fock is set to
   LHFONE  =     F    Hartree Fock one center treatment
   AEXX    =    0.0000 exact exchange contribution

 Linear response parameters
   LEPSILON=     F    determine dielectric tensor
   LRPA    =     F    only Hartree local field effects (RPA)
   LNABLA  =     F    use nabla operator in PAW spheres
   LVEL    =     F    velocity operator in full k-point grid
   LINTERFAST=   F  fast interpolation
   KINTER  =     0    interpolate to denser k-point grid
   CSHIFT  =0.1000    complex shift for real part using Kramers Kronig
   OMEGAMAX=  -1.0    maximum frequency
   DEG_THRESHOLD= 0.2000000E-02 threshold for treating states as degnerate
   RTIME   =   -0.100 relaxation time in fs
  (WPLASMAI=    0.000 imaginary part of plasma frequency in eV, 0.658/RTIME)
   DFIELD  = 0.0000000 0.0000000 0.0000000 field for delta impulse in time
 
 Orbital magnetization related:
   ORBITALMAG=     F  switch on orbital magnetization
   LCHIMAG   =     F  perturbation theory with respect to B field
   DQ        =  0.001000  dq finite difference perturbation B field
   LLRAUG    =     F  two centre corrections for induced B field



--------------------------------------------------------------------------------------------------------


 Static calculation
 charge density and potential remain constant during run
 spin polarized calculation
 Variant of blocked Davidson
 Davidson routine will perform the subspace rotation
 perform sub-space diagonalisation
    after iterative eigenvector-optimisation
 no mixing
 using additional bands           28
 reciprocal scheme for non local part
 use partial core corrections
 calculate Harris-corrections to forces 
   (improved forces if not selfconsistent)
 use gradient corrections 
 WARNING: stress and forces are not correct
  (second derivative of E(xc) not defined)
 use of overlap-Matrix (Vanderbilt PP)
 Gauss-broadening in eV      SIGMA  =   0.05


--------------------------------------------------------------------------------------------------------


  energy-cutoff  :      500.00
  volume of cell :       43.72
      direct lattice vectors                 reciprocal lattice vectors
     2.467195989  0.000000000  0.000000000     0.405318428  0.234010704  0.000000000
    -1.233597995  2.136654403  0.000000000    -0.000000000  0.468021407  0.000000000
     0.000000000  0.000000000  8.294196092     0.000000000  0.000000000  0.120566236

  length of vectors
     2.467195989  2.467195989  8.294196092     0.468021407  0.468021407  0.120566236


 
 k-points in units of 2pi/SCALE and weight: K-Path Generated by VASPKIT.            
   0.00000000  0.00000000  0.00000000       0.003
   0.00204706  0.00118187  0.00000000       0.003
   0.00409413  0.00236374  0.00000000       0.003
   0.00614119  0.00354562  0.00000000       0.003
   0.00818825  0.00472749  0.00000000       0.003
   0.01023531  0.00590936  0.00000000       0.003
   0.01228238  0.00709123  0.00000000       0.003
   0.01432944  0.00827311  0.00000000       0.003
   0.01637650  0.00945498  0.00000000       0.003
   0.01842356  0.01063685  0.00000000       0.003
   0.02047063  0.01181872  0.00000000       0.003
   0.02251769  0.01300059  0.00000000       0.003
   0.02456475  0.01418247  0.00000000       0.003
   0.02661182  0.01536434  0.00000000       0.003
   0.02865888  0.01654621  0.00000000       0.003
   0.03070594  0.01772808  0.00000000       0.003
   0.03275300  0.01890996  0.00000000       0.003
   0.03480007  0.02009183  0.00000000       0.003
   0.03684713  0.02127370  0.00000000       0.003
   0.03889419  0.02245557  0.00000000       0.003
   0.04094126  0.02363744  0.00000000       0.003
   0.04298832  0.02481932  0.00000000       0.003
   0.04503538  0.02600119  0.00000000       0.003
   0.04708244  0.02718306  0.00000000       0.003
   0.04912951  0.02836493  0.00000000       0.003
   0.05117657  0.02954681  0.00000000       0.003
   0.05322363  0.03072868  0.00000000       0.003
   0.05527069  0.03191055  0.00000000       0.003
   0.05731776  0.03309242  0.00000000       0.003
   0.05936482  0.03427429  0.00000000       0.003
   0.06141188  0.03545617  0.00000000       0.003
   0.06345895  0.03663804  0.00000000       0.003
   0.06550601  0.03781991  0.00000000       0.003
   0.06755307  0.03900178  0.00000000       0.003
   0.06960013  0.04018366  0.00000000       0.003
   0.07164720  0.04136553  0.00000000       0.003
   0.07369426  0.04254740  0.00000000       0.003
   0.07574132  0.04372927  0.00000000       0.003
   0.07778839  0.04491115  0.00000000       0.003
   0.07983545  0.04609302  0.00000000       0.003
   0.08188251  0.04727489  0.00000000       0.003
   0.08392957  0.04845676  0.00000000       0.003
   0.08597664  0.04963863  0.00000000       0.003
   0.08802370  0.05082051  0.00000000       0.003
   0.09007076  0.05200238  0.00000000       0.003
   0.09211782  0.05318425  0.00000000       0.003
   0.09416489  0.05436612  0.00000000       0.003
   0.09621195  0.05554800  0.00000000       0.003
   0.09825901  0.05672987  0.00000000       0.003
   0.10030608  0.05791174  0.00000000       0.003
   0.10235314  0.05909361  0.00000000       0.003
   0.10440020  0.06027548  0.00000000       0.003
   0.10644726  0.06145736  0.00000000       0.003
   0.10849433  0.06263923  0.00000000       0.003
   0.11054139  0.06382110  0.00000000       0.003
   0.11258845  0.06500297  0.00000000       0.003
   0.11463551  0.06618485  0.00000000       0.003
   0.11668258  0.06736672  0.00000000       0.003
   0.11872964  0.06854859  0.00000000       0.003
   0.12077670  0.06973046  0.00000000       0.003
   0.12282377  0.07091233  0.00000000       0.003
   0.12487083  0.07209421  0.00000000       0.003
   0.12691789  0.07327608  0.00000000       0.003
   0.12896495  0.07445795  0.00000000       0.003
   0.13101202  0.07563982  0.00000000       0.003
   0.13305908  0.07682170  0.00000000       0.003
   0.13510614  0.07800357  0.00000000       0.003
   0.13715321  0.07918544  0.00000000       0.003
   0.13920027  0.08036731  0.00000000       0.003
   0.14124733  0.08154918  0.00000000       0.003
   0.14329439  0.08273106  0.00000000       0.003
   0.14534146  0.08391293  0.00000000       0.003
   0.14738852  0.08509480  0.00000000       0.003
   0.14943558  0.08627667  0.00000000       0.003
   0.15148264  0.08745855  0.00000000       0.003
   0.15352971  0.08864042  0.00000000       0.003
   0.15557677  0.08982229  0.00000000       0.003
   0.15762383  0.09100416  0.00000000       0.003
   0.15967090  0.09218603  0.00000000       0.003
   0.16171796  0.09336791  0.00000000       0.003
   0.16376502  0.09454978  0.00000000       0.003
   0.16581208  0.09573165  0.00000000       0.003
   0.16785915  0.09691352  0.00000000       0.003
   0.16990621  0.09809540  0.00000000       0.003
   0.17195327  0.09927727  0.00000000       0.003
   0.17400034  0.10045914  0.00000000       0.003
   0.17604740  0.10164101  0.00000000       0.003
   0.17809446  0.10282288  0.00000000       0.003
   0.18014152  0.10400476  0.00000000       0.003
   0.18218859  0.10518663  0.00000000       0.003
   0.18423565  0.10636850  0.00000000       0.003
   0.18628271  0.10755037  0.00000000       0.003
   0.18832977  0.10873225  0.00000000       0.003
   0.19037684  0.10991412  0.00000000       0.003
   0.19242390  0.11109599  0.00000000       0.003
   0.19447096  0.11227786  0.00000000       0.003
   0.19651803  0.11345974  0.00000000       0.003
   0.19856509  0.11464161  0.00000000       0.003
   0.20061215  0.11582348  0.00000000       0.003
   0.20265921  0.11700535  0.00000000       0.003
   0.20265921  0.11700535  0.00000000       0.003
   0.20197686  0.11818722  0.00000000       0.003
   0.20129451  0.11936910  0.00000000       0.003
   0.20061215  0.12055097  0.00000000       0.003
   0.19992980  0.12173284  0.00000000       0.003
   0.19924744  0.12291471  0.00000000       0.003
   0.19856509  0.12409659  0.00000000       0.003
   0.19788273  0.12527846  0.00000000       0.003
   0.19720038  0.12646033  0.00000000       0.003
   0.19651803  0.12764220  0.00000000       0.003
   0.19583567  0.12882407  0.00000000       0.003
   0.19515332  0.13000595  0.00000000       0.003
   0.19447096  0.13118782  0.00000000       0.003
   0.19378861  0.13236969  0.00000000       0.003
   0.19310625  0.13355156  0.00000000       0.003
   0.19242390  0.13473344  0.00000000       0.003
   0.19174155  0.13591531  0.00000000       0.003
   0.19105919  0.13709718  0.00000000       0.003
   0.19037684  0.13827905  0.00000000       0.003
   0.18969448  0.13946092  0.00000000       0.003
   0.18901213  0.14064280  0.00000000       0.003
   0.18832977  0.14182467  0.00000000       0.003
   0.18764742  0.14300654  0.00000000       0.003
   0.18696507  0.14418841  0.00000000       0.003
   0.18628271  0.14537029  0.00000000       0.003
   0.18560036  0.14655216  0.00000000       0.003
   0.18491800  0.14773403  0.00000000       0.003
   0.18423565  0.14891590  0.00000000       0.003
   0.18355329  0.15009777  0.00000000       0.003
   0.18287094  0.15127965  0.00000000       0.003
   0.18218859  0.15246152  0.00000000       0.003
   0.18150623  0.15364339  0.00000000       0.003
   0.18082388  0.15482526  0.00000000       0.003
   0.18014152  0.15600714  0.00000000       0.003
   0.17945917  0.15718901  0.00000000       0.003
   0.17877682  0.15837088  0.00000000       0.003
   0.17809446  0.15955275  0.00000000       0.003
   0.17741211  0.16073462  0.00000000       0.003
   0.17672975  0.16191650  0.00000000       0.003
   0.17604740  0.16309837  0.00000000       0.003
   0.17536504  0.16428024  0.00000000       0.003
   0.17468269  0.16546211  0.00000000       0.003
   0.17400034  0.16664399  0.00000000       0.003
   0.17331798  0.16782586  0.00000000       0.003
   0.17263563  0.16900773  0.00000000       0.003
   0.17195327  0.17018960  0.00000000       0.003
   0.17127092  0.17137147  0.00000000       0.003
   0.17058856  0.17255335  0.00000000       0.003
   0.16990621  0.17373522  0.00000000       0.003
   0.16922386  0.17491709  0.00000000       0.003
   0.16854150  0.17609896  0.00000000       0.003
   0.16785915  0.17728084  0.00000000       0.003
   0.16717679  0.17846271  0.00000000       0.003
   0.16649444  0.17964458  0.00000000       0.003
   0.16581208  0.18082645  0.00000000       0.003
   0.16512973  0.18200832  0.00000000       0.003
   0.16444738  0.18319020  0.00000000       0.003
   0.16376502  0.18437207  0.00000000       0.003
   0.16308267  0.18555394  0.00000000       0.003
   0.16240031  0.18673581  0.00000000       0.003
   0.16171796  0.18791769  0.00000000       0.003
   0.16103560  0.18909956  0.00000000       0.003
   0.16035325  0.19028143  0.00000000       0.003
   0.15967090  0.19146330  0.00000000       0.003
   0.15898854  0.19264518  0.00000000       0.003
   0.15830619  0.19382705  0.00000000       0.003
   0.15762383  0.19500892  0.00000000       0.003
   0.15694148  0.19619079  0.00000000       0.003
   0.15625912  0.19737266  0.00000000       0.003
   0.15557677  0.19855454  0.00000000       0.003
   0.15489442  0.19973641  0.00000000       0.003
   0.15421206  0.20091828  0.00000000       0.003
   0.15352971  0.20210015  0.00000000       0.003
   0.15284735  0.20328203  0.00000000       0.003
   0.15216500  0.20446390  0.00000000       0.003
   0.15148264  0.20564577  0.00000000       0.003
   0.15080029  0.20682764  0.00000000       0.003
   0.15011794  0.20800951  0.00000000       0.003
   0.14943558  0.20919139  0.00000000       0.003
   0.14875323  0.21037326  0.00000000       0.003
   0.14807087  0.21155513  0.00000000       0.003
   0.14738852  0.21273700  0.00000000       0.003
   0.14670617  0.21391888  0.00000000       0.003
   0.14602381  0.21510075  0.00000000       0.003
   0.14534146  0.21628262  0.00000000       0.003
   0.14465910  0.21746449  0.00000000       0.003
   0.14397675  0.21864636  0.00000000       0.003
   0.14329439  0.21982824  0.00000000       0.003
   0.14261204  0.22101011  0.00000000       0.003
   0.14192969  0.22219198  0.00000000       0.003
   0.14124733  0.22337385  0.00000000       0.003
   0.14056498  0.22455573  0.00000000       0.003
   0.13988262  0.22573760  0.00000000       0.003
   0.13920027  0.22691947  0.00000000       0.003
   0.13851791  0.22810134  0.00000000       0.003
   0.13783556  0.22928321  0.00000000       0.003
   0.13715321  0.23046509  0.00000000       0.003
   0.13647085  0.23164696  0.00000000       0.003
   0.13578850  0.23282883  0.00000000       0.003
   0.13510614  0.23401070  0.00000000       0.003
   0.13510614  0.23401070  0.00000000       0.003
   0.13374143  0.23164696  0.00000000       0.003
   0.13237673  0.22928321  0.00000000       0.003
   0.13101202  0.22691947  0.00000000       0.003
   0.12964731  0.22455573  0.00000000       0.003
   0.12828260  0.22219198  0.00000000       0.003
   0.12691789  0.21982824  0.00000000       0.003
   0.12555318  0.21746449  0.00000000       0.003
   0.12418847  0.21510075  0.00000000       0.003
   0.12282377  0.21273700  0.00000000       0.003
   0.12145906  0.21037326  0.00000000       0.003
   0.12009435  0.20800951  0.00000000       0.003
   0.11872964  0.20564577  0.00000000       0.003
   0.11736493  0.20328203  0.00000000       0.003
   0.11600022  0.20091828  0.00000000       0.003
   0.11463551  0.19855454  0.00000000       0.003
   0.11327081  0.19619079  0.00000000       0.003
   0.11190610  0.19382705  0.00000000       0.003
   0.11054139  0.19146330  0.00000000       0.003
   0.10917668  0.18909956  0.00000000       0.003
   0.10781197  0.18673581  0.00000000       0.003
   0.10644726  0.18437207  0.00000000       0.003
   0.10508256  0.18200832  0.00000000       0.003
   0.10371785  0.17964458  0.00000000       0.003
   0.10235314  0.17728084  0.00000000       0.003
   0.10098843  0.17491709  0.00000000       0.003
   0.09962372  0.17255335  0.00000000       0.003
   0.09825901  0.17018960  0.00000000       0.003
   0.09689430  0.16782586  0.00000000       0.003
   0.09552960  0.16546211  0.00000000       0.003
   0.09416489  0.16309837  0.00000000       0.003
   0.09280018  0.16073462  0.00000000       0.003
   0.09143547  0.15837088  0.00000000       0.003
   0.09007076  0.15600714  0.00000000       0.003
   0.08870605  0.15364339  0.00000000       0.003
   0.08734134  0.15127965  0.00000000       0.003
   0.08597664  0.14891590  0.00000000       0.003
   0.08461193  0.14655216  0.00000000       0.003
   0.08324722  0.14418841  0.00000000       0.003
   0.08188251  0.14182467  0.00000000       0.003
   0.08051780  0.13946092  0.00000000       0.003
   0.07915309  0.13709718  0.00000000       0.003
   0.07778839  0.13473344  0.00000000       0.003
   0.07642368  0.13236969  0.00000000       0.003
   0.07505897  0.13000595  0.00000000       0.003
   0.07369426  0.12764220  0.00000000       0.003
   0.07232955  0.12527846  0.00000000       0.003
   0.07096484  0.12291471  0.00000000       0.003
   0.06960013  0.12055097  0.00000000       0.003
   0.06823543  0.11818722  0.00000000       0.003
   0.06687072  0.11582348  0.00000000       0.003
   0.06550601  0.11345974  0.00000000       0.003
   0.06414130  0.11109599  0.00000000       0.003
   0.06277659  0.10873225  0.00000000       0.003
   0.06141188  0.10636850  0.00000000       0.003
   0.06004717  0.10400476  0.00000000       0.003
   0.05868247  0.10164101  0.00000000       0.003
   0.05731776  0.09927727  0.00000000       0.003
   0.05595305  0.09691352  0.00000000       0.003
   0.05458834  0.09454978  0.00000000       0.003
   0.05322363  0.09218603  0.00000000       0.003
   0.05185892  0.08982229  0.00000000       0.003
   0.05049421  0.08745855  0.00000000       0.003
   0.04912951  0.08509480  0.00000000       0.003
   0.04776480  0.08273106  0.00000000       0.003
   0.04640009  0.08036731  0.00000000       0.003
   0.04503538  0.07800357  0.00000000       0.003
   0.04367067  0.07563982  0.00000000       0.003
   0.04230596  0.07327608  0.00000000       0.003
   0.04094126  0.07091233  0.00000000       0.003
   0.03957655  0.06854859  0.00000000       0.003
   0.03821184  0.06618485  0.00000000       0.003
   0.03684713  0.06382110  0.00000000       0.003
   0.03548242  0.06145736  0.00000000       0.003
   0.03411771  0.05909361  0.00000000       0.003
   0.03275300  0.05672987  0.00000000       0.003
   0.03138830  0.05436612  0.00000000       0.003
   0.03002359  0.05200238  0.00000000       0.003
   0.02865888  0.04963863  0.00000000       0.003
   0.02729417  0.04727489  0.00000000       0.003
   0.02592946  0.04491115  0.00000000       0.003
   0.02456475  0.04254740  0.00000000       0.003
   0.02320004  0.04018366  0.00000000       0.003
   0.02183534  0.03781991  0.00000000       0.003
   0.02047063  0.03545617  0.00000000       0.003
   0.01910592  0.03309242  0.00000000       0.003
   0.01774121  0.03072868  0.00000000       0.003
   0.01637650  0.02836493  0.00000000       0.003
   0.01501179  0.02600119  0.00000000       0.003
   0.01364709  0.02363744  0.00000000       0.003
   0.01228238  0.02127370  0.00000000       0.003
   0.01091767  0.01890996  0.00000000       0.003
   0.00955296  0.01654621  0.00000000       0.003
   0.00818825  0.01418247  0.00000000       0.003
   0.00682354  0.01181872  0.00000000       0.003
   0.00545883  0.00945498  0.00000000       0.003
   0.00409413  0.00709123  0.00000000       0.003
   0.00272942  0.00472749  0.00000000       0.003
   0.00136471  0.00236374  0.00000000       0.003
   0.00000000  0.00000000  0.00000000       0.003
 
 k-points in reciprocal lattice and weights: K-Path Generated by VASPKIT.            
   0.00000000  0.00000000  0.00000000       0.003
   0.00505051  0.00000000  0.00000000       0.003
   0.01010101  0.00000000  0.00000000       0.003
   0.01515152  0.00000000  0.00000000       0.003
   0.02020202  0.00000000  0.00000000       0.003
   0.02525253  0.00000000  0.00000000       0.003
   0.03030303  0.00000000  0.00000000       0.003
   0.03535354  0.00000000  0.00000000       0.003
   0.04040404  0.00000000  0.00000000       0.003
   0.04545455  0.00000000  0.00000000       0.003
   0.05050505  0.00000000  0.00000000       0.003
   0.05555556  0.00000000  0.00000000       0.003
   0.06060606  0.00000000  0.00000000       0.003
   0.06565657  0.00000000  0.00000000       0.003
   0.07070707  0.00000000  0.00000000       0.003
   0.07575758  0.00000000  0.00000000       0.003
   0.08080808  0.00000000  0.00000000       0.003
   0.08585859  0.00000000  0.00000000       0.003
   0.09090909  0.00000000  0.00000000       0.003
   0.09595960  0.00000000  0.00000000       0.003
   0.10101010  0.00000000  0.00000000       0.003
   0.10606061  0.00000000  0.00000000       0.003
   0.11111111  0.00000000  0.00000000       0.003
   0.11616162  0.00000000  0.00000000       0.003
   0.12121212  0.00000000  0.00000000       0.003
   0.12626263  0.00000000  0.00000000       0.003
   0.13131313  0.00000000  0.00000000       0.003
   0.13636364  0.00000000  0.00000000       0.003
   0.14141414  0.00000000  0.00000000       0.003
   0.14646465  0.00000000  0.00000000       0.003
   0.15151515  0.00000000  0.00000000       0.003
   0.15656566  0.00000000  0.00000000       0.003
   0.16161616  0.00000000  0.00000000       0.003
   0.16666667  0.00000000  0.00000000       0.003
   0.17171717  0.00000000  0.00000000       0.003
   0.17676768  0.00000000  0.00000000       0.003
   0.18181818  0.00000000  0.00000000       0.003
   0.18686869  0.00000000  0.00000000       0.003
   0.19191919  0.00000000  0.00000000       0.003
   0.19696970  0.00000000  0.00000000       0.003
   0.20202020  0.00000000  0.00000000       0.003
   0.20707071  0.00000000  0.00000000       0.003
   0.21212121  0.00000000  0.00000000       0.003
   0.21717172  0.00000000  0.00000000       0.003
   0.22222222  0.00000000  0.00000000       0.003
   0.22727273  0.00000000  0.00000000       0.003
   0.23232323  0.00000000  0.00000000       0.003
   0.23737374  0.00000000  0.00000000       0.003
   0.24242424  0.00000000  0.00000000       0.003
   0.24747475  0.00000000  0.00000000       0.003
   0.25252525  0.00000000  0.00000000       0.003
   0.25757576  0.00000000  0.00000000       0.003
   0.26262626  0.00000000  0.00000000       0.003
   0.26767677  0.00000000  0.00000000       0.003
   0.27272727  0.00000000  0.00000000       0.003
   0.27777778  0.00000000  0.00000000       0.003
   0.28282828  0.00000000  0.00000000       0.003
   0.28787879  0.00000000  0.00000000       0.003
   0.29292929  0.00000000  0.00000000       0.003
   0.29797980  0.00000000  0.00000000       0.003
   0.30303030  0.00000000  0.00000000       0.003
   0.30808081  0.00000000  0.00000000       0.003
   0.31313131  0.00000000  0.00000000       0.003
   0.31818182  0.00000000  0.00000000       0.003
   0.32323232  0.00000000  0.00000000       0.003
   0.32828283  0.00000000  0.00000000       0.003
   0.33333333  0.00000000  0.00000000       0.003
   0.33838384  0.00000000  0.00000000       0.003
   0.34343434  0.00000000  0.00000000       0.003
   0.34848485  0.00000000  0.00000000       0.003
   0.35353535  0.00000000  0.00000000       0.003
   0.35858586  0.00000000  0.00000000       0.003
   0.36363636  0.00000000  0.00000000       0.003
   0.36868687  0.00000000  0.00000000       0.003
   0.37373737  0.00000000  0.00000000       0.003
   0.37878788  0.00000000  0.00000000       0.003
   0.38383838  0.00000000  0.00000000       0.003
   0.38888889  0.00000000  0.00000000       0.003
   0.39393939  0.00000000  0.00000000       0.003
   0.39898990  0.00000000  0.00000000       0.003
   0.40404040  0.00000000  0.00000000       0.003
   0.40909091  0.00000000  0.00000000       0.003
   0.41414141  0.00000000  0.00000000       0.003
   0.41919192  0.00000000  0.00000000       0.003
   0.42424242  0.00000000  0.00000000       0.003
   0.42929293  0.00000000  0.00000000       0.003
   0.43434343  0.00000000  0.00000000       0.003
   0.43939394  0.00000000  0.00000000       0.003
   0.44444444  0.00000000  0.00000000       0.003
   0.44949495  0.00000000  0.00000000       0.003
   0.45454545  0.00000000  0.00000000       0.003
   0.45959596  0.00000000  0.00000000       0.003
   0.46464646  0.00000000  0.00000000       0.003
   0.46969697  0.00000000  0.00000000       0.003
   0.47474747  0.00000000  0.00000000       0.003
   0.47979798  0.00000000  0.00000000       0.003
   0.48484848  0.00000000  0.00000000       0.003
   0.48989899  0.00000000  0.00000000       0.003
   0.49494949  0.00000000  0.00000000       0.003
   0.50000000  0.00000000  0.00000000       0.003
   0.50000000  0.00000000  0.00000000       0.003
   0.49831650  0.00336700  0.00000000       0.003
   0.49663300  0.00673401  0.00000000       0.003
   0.49494949  0.01010101  0.00000000       0.003
   0.49326599  0.01346801  0.00000000       0.003
   0.49158249  0.01683502  0.00000000       0.003
   0.48989899  0.02020202  0.00000000       0.003
   0.48821549  0.02356902  0.00000000       0.003
   0.48653199  0.02693603  0.00000000       0.003
   0.48484848  0.03030303  0.00000000       0.003
   0.48316498  0.03367003  0.00000000       0.003
   0.48148148  0.03703704  0.00000000       0.003
   0.47979798  0.04040404  0.00000000       0.003
   0.47811448  0.04377104  0.00000000       0.003
   0.47643098  0.04713805  0.00000000       0.003
   0.47474747  0.05050505  0.00000000       0.003
   0.47306397  0.05387205  0.00000000       0.003
   0.47138047  0.05723906  0.00000000       0.003
   0.46969697  0.06060606  0.00000000       0.003
   0.46801347  0.06397306  0.00000000       0.003
   0.46632997  0.06734007  0.00000000       0.003
   0.46464646  0.07070707  0.00000000       0.003
   0.46296296  0.07407407  0.00000000       0.003
   0.46127946  0.07744108  0.00000000       0.003
   0.45959596  0.08080808  0.00000000       0.003
   0.45791246  0.08417508  0.00000000       0.003
   0.45622896  0.08754209  0.00000000       0.003
   0.45454545  0.09090909  0.00000000       0.003
   0.45286195  0.09427609  0.00000000       0.003
   0.45117845  0.09764310  0.00000000       0.003
   0.44949495  0.10101010  0.00000000       0.003
   0.44781145  0.10437710  0.00000000       0.003
   0.44612795  0.10774411  0.00000000       0.003
   0.44444444  0.11111111  0.00000000       0.003
   0.44276094  0.11447811  0.00000000       0.003
   0.44107744  0.11784512  0.00000000       0.003
   0.43939394  0.12121212  0.00000000       0.003
   0.43771044  0.12457912  0.00000000       0.003
   0.43602694  0.12794613  0.00000000       0.003
   0.43434343  0.13131313  0.00000000       0.003
   0.43265993  0.13468013  0.00000000       0.003
   0.43097643  0.13804714  0.00000000       0.003
   0.42929293  0.14141414  0.00000000       0.003
   0.42760943  0.14478114  0.00000000       0.003
   0.42592593  0.14814815  0.00000000       0.003
   0.42424242  0.15151515  0.00000000       0.003
   0.42255892  0.15488215  0.00000000       0.003
   0.42087542  0.15824916  0.00000000       0.003
   0.41919192  0.16161616  0.00000000       0.003
   0.41750842  0.16498316  0.00000000       0.003
   0.41582492  0.16835017  0.00000000       0.003
   0.41414141  0.17171717  0.00000000       0.003
   0.41245791  0.17508418  0.00000000       0.003
   0.41077441  0.17845118  0.00000000       0.003
   0.40909091  0.18181818  0.00000000       0.003
   0.40740741  0.18518519  0.00000000       0.003
   0.40572391  0.18855219  0.00000000       0.003
   0.40404040  0.19191919  0.00000000       0.003
   0.40235690  0.19528620  0.00000000       0.003
   0.40067340  0.19865320  0.00000000       0.003
   0.39898990  0.20202020  0.00000000       0.003
   0.39730640  0.20538721  0.00000000       0.003
   0.39562290  0.20875421  0.00000000       0.003
   0.39393939  0.21212121  0.00000000       0.003
   0.39225589  0.21548822  0.00000000       0.003
   0.39057239  0.21885522  0.00000000       0.003
   0.38888889  0.22222222  0.00000000       0.003
   0.38720539  0.22558923  0.00000000       0.003
   0.38552189  0.22895623  0.00000000       0.003
   0.38383838  0.23232323  0.00000000       0.003
   0.38215488  0.23569024  0.00000000       0.003
   0.38047138  0.23905724  0.00000000       0.003
   0.37878788  0.24242424  0.00000000       0.003
   0.37710438  0.24579125  0.00000000       0.003
   0.37542088  0.24915825  0.00000000       0.003
   0.37373737  0.25252525  0.00000000       0.003
   0.37205387  0.25589226  0.00000000       0.003
   0.37037037  0.25925926  0.00000000       0.003
   0.36868687  0.26262626  0.00000000       0.003
   0.36700337  0.26599327  0.00000000       0.003
   0.36531987  0.26936027  0.00000000       0.003
   0.36363636  0.27272727  0.00000000       0.003
   0.36195286  0.27609428  0.00000000       0.003
   0.36026936  0.27946128  0.00000000       0.003
   0.35858586  0.28282828  0.00000000       0.003
   0.35690236  0.28619529  0.00000000       0.003
   0.35521886  0.28956229  0.00000000       0.003
   0.35353535  0.29292929  0.00000000       0.003
   0.35185185  0.29629630  0.00000000       0.003
   0.35016835  0.29966330  0.00000000       0.003
   0.34848485  0.30303030  0.00000000       0.003
   0.34680135  0.30639731  0.00000000       0.003
   0.34511785  0.30976431  0.00000000       0.003
   0.34343434  0.31313131  0.00000000       0.003
   0.34175084  0.31649832  0.00000000       0.003
   0.34006734  0.31986532  0.00000000       0.003
   0.33838384  0.32323232  0.00000000       0.003
   0.33670034  0.32659933  0.00000000       0.003
   0.33501683  0.32996633  0.00000000       0.003
   0.33333333  0.33333333  0.00000000       0.003
   0.33333333  0.33333333  0.00000000       0.003
   0.32996633  0.32996633  0.00000000       0.003
   0.32659933  0.32659933  0.00000000       0.003
   0.32323232  0.32323232  0.00000000       0.003
   0.31986532  0.31986532  0.00000000       0.003
   0.31649832  0.31649832  0.00000000       0.003
   0.31313131  0.31313131  0.00000000       0.003
   0.30976431  0.30976431  0.00000000       0.003
   0.30639731  0.30639731  0.00000000       0.003
   0.30303030  0.30303030  0.00000000       0.003
   0.29966330  0.29966330  0.00000000       0.003
   0.29629630  0.29629630  0.00000000       0.003
   0.29292929  0.29292929  0.00000000       0.003
   0.28956229  0.28956229  0.00000000       0.003
   0.28619529  0.28619529  0.00000000       0.003
   0.28282828  0.28282828  0.00000000       0.003
   0.27946128  0.27946128  0.00000000       0.003
   0.27609428  0.27609428  0.00000000       0.003
   0.27272727  0.27272727  0.00000000       0.003
   0.26936027  0.26936027  0.00000000       0.003
   0.26599327  0.26599327  0.00000000       0.003
   0.26262626  0.26262626  0.00000000       0.003
   0.25925926  0.25925926  0.00000000       0.003
   0.25589226  0.25589226  0.00000000       0.003
   0.25252525  0.25252525  0.00000000       0.003
   0.24915825  0.24915825  0.00000000       0.003
   0.24579125  0.24579125  0.00000000       0.003
   0.24242424  0.24242424  0.00000000       0.003
   0.23905724  0.23905724  0.00000000       0.003
   0.23569024  0.23569024  0.00000000       0.003
   0.23232323  0.23232323  0.00000000       0.003
   0.22895623  0.22895623  0.00000000       0.003
   0.22558923  0.22558923  0.00000000       0.003
   0.22222222  0.22222222  0.00000000       0.003
   0.21885522  0.21885522  0.00000000       0.003
   0.21548822  0.21548822  0.00000000       0.003
   0.21212121  0.21212121  0.00000000       0.003
   0.20875421  0.20875421  0.00000000       0.003
   0.20538721  0.20538721  0.00000000       0.003
   0.20202020  0.20202020  0.00000000       0.003
   0.19865320  0.19865320  0.00000000       0.003
   0.19528620  0.19528620  0.00000000       0.003
   0.19191919  0.19191919  0.00000000       0.003
   0.18855219  0.18855219  0.00000000       0.003
   0.18518519  0.18518519  0.00000000       0.003
   0.18181818  0.18181818  0.00000000       0.003
   0.17845118  0.17845118  0.00000000       0.003
   0.17508418  0.17508418  0.00000000       0.003
   0.17171717  0.17171717  0.00000000       0.003
   0.16835017  0.16835017  0.00000000       0.003
   0.16498316  0.16498316  0.00000000       0.003
   0.16161616  0.16161616  0.00000000       0.003
   0.15824916  0.15824916  0.00000000       0.003
   0.15488215  0.15488215  0.00000000       0.003
   0.15151515  0.15151515  0.00000000       0.003
   0.14814815  0.14814815  0.00000000       0.003
   0.14478114  0.14478114  0.00000000       0.003
   0.14141414  0.14141414  0.00000000       0.003
   0.13804714  0.13804714  0.00000000       0.003
   0.13468013  0.13468013  0.00000000       0.003
   0.13131313  0.13131313  0.00000000       0.003
   0.12794613  0.12794613  0.00000000       0.003
   0.12457912  0.12457912  0.00000000       0.003
   0.12121212  0.12121212  0.00000000       0.003
   0.11784512  0.11784512  0.00000000       0.003
   0.11447811  0.11447811  0.00000000       0.003
   0.11111111  0.11111111  0.00000000       0.003
   0.10774411  0.10774411  0.00000000       0.003
   0.10437710  0.10437710  0.00000000       0.003
   0.10101010  0.10101010  0.00000000       0.003
   0.09764310  0.09764310  0.00000000       0.003
   0.09427609  0.09427609  0.00000000       0.003
   0.09090909  0.09090909  0.00000000       0.003
   0.08754209  0.08754209  0.00000000       0.003
   0.08417508  0.08417508  0.00000000       0.003
   0.08080808  0.08080808  0.00000000       0.003
   0.07744108  0.07744108  0.00000000       0.003
   0.07407407  0.07407407  0.00000000       0.003
   0.07070707  0.07070707  0.00000000       0.003
   0.06734007  0.06734007  0.00000000       0.003
   0.06397306  0.06397306  0.00000000       0.003
   0.06060606  0.06060606  0.00000000       0.003
   0.05723906  0.05723906  0.00000000       0.003
   0.05387205  0.05387205  0.00000000       0.003
   0.05050505  0.05050505  0.00000000       0.003
   0.04713805  0.04713805  0.00000000       0.003
   0.04377104  0.04377104  0.00000000       0.003
   0.04040404  0.04040404  0.00000000       0.003
   0.03703704  0.03703704  0.00000000       0.003
   0.03367003  0.03367003  0.00000000       0.003
   0.03030303  0.03030303  0.00000000       0.003
   0.02693603  0.02693603  0.00000000       0.003
   0.02356902  0.02356902  0.00000000       0.003
   0.02020202  0.02020202  0.00000000       0.003
   0.01683502  0.01683502  0.00000000       0.003
   0.01346801  0.01346801  0.00000000       0.003
   0.01010101  0.01010101  0.00000000       0.003
   0.00673401  0.00673401  0.00000000       0.003
   0.00336700  0.00336700  0.00000000       0.003
   0.00000000  0.00000000  0.00000000       0.003
 
 position of ions in fractional coordinates (direct lattice) 
   0.66666667  0.33333333  0.50000000
   0.33333333  0.66666667  0.50000000
 
 position of ions in cartesian coordinates  (Angst):
   1.23359799  0.71221813  4.14709805
   0.00000000  1.42443627  4.14709805
 


--------------------------------------------------------------------------------------------------------


 k-point  1 :   0.0000 0.0000 0.0000  plane waves:    1117
 k-point  2 :   0.0051 0.0000 0.0000  plane waves:    1117
 k-point  3 :   0.0101 0.0000 0.0000  plane waves:    1119
 k-point  4 :   0.0152 0.0000 0.0000  plane waves:    1123
 k-point  5 :   0.0202 0.0000 0.0000  plane waves:    1127
 k-point  6 :   0.0253 0.0000 0.0000  plane waves:    1127
 k-point  7 :   0.0303 0.0000 0.0000  plane waves:    1123
 k-point  8 :   0.0354 0.0000 0.0000  plane waves:    1127
 k-point  9 :   0.0404 0.0000 0.0000  plane waves:    1123
 k-point 10 :   0.0455 0.0000 0.0000  plane waves:    1127
 k-point 11 :   0.0505 0.0000 0.0000  plane waves:    1127
 k-point 12 :   0.0556 0.0000 0.0000  plane waves:    1127
 k-point 13 :   0.0606 0.0000 0.0000  plane waves:    1127
 k-point 14 :   0.0657 0.0000 0.0000  plane waves:    1127
 k-point 15 :   0.0707 0.0000 0.0000  plane waves:    1127
 k-point 16 :   0.0758 0.0000 0.0000  plane waves:    1123
 k-point 17 :   0.0808 0.0000 0.0000  plane waves:    1125
 k-point 18 :   0.0859 0.0000 0.0000  plane waves:    1125
 k-point 19 :   0.0909 0.0000 0.0000  plane waves:    1125
 k-point 20 :   0.0960 0.0000 0.0000  plane waves:    1125
 k-point 21 :   0.1010 0.0000 0.0000  plane waves:    1125
 k-point 22 :   0.1061 0.0000 0.0000  plane waves:    1122
 k-point 23 :   0.1111 0.0000 0.0000  plane waves:    1122
 k-point 24 :   0.1162 0.0000 0.0000  plane waves:    1128
 k-point 25 :   0.1212 0.0000 0.0000  plane waves:    1128
 k-point 26 :   0.1263 0.0000 0.0000  plane waves:    1128
 k-point 27 :   0.1313 0.0000 0.0000  plane waves:    1118
 k-point 28 :   0.1364 0.0000 0.0000  plane waves:    1118
 k-point 29 :   0.1414 0.0000 0.0000  plane waves:    1120
 k-point 30 :   0.1465 0.0000 0.0000  plane waves:    1120
 k-point 31 :   0.1515 0.0000 0.0000  plane waves:    1120
 k-point 32 :   0.1566 0.0000 0.0000  plane waves:    1116
 k-point 33 :   0.1616 0.0000 0.0000  plane waves:    1120
 k-point 34 :   0.1667 0.0000 0.0000  plane waves:    1124
 k-point 35 :   0.1717 0.0000 0.0000  plane waves:    1124
 k-point 36 :   0.1768 0.0000 0.0000  plane waves:    1124
 k-point 37 :   0.1818 0.0000 0.0000  plane waves:    1126
 k-point 38 :   0.1869 0.0000 0.0000  plane waves:    1130
 k-point 39 :   0.1919 0.0000 0.0000  plane waves:    1130
 k-point 40 :   0.1970 0.0000 0.0000  plane waves:    1130
 k-point 41 :   0.2020 0.0000 0.0000  plane waves:    1130
 k-point 42 :   0.2071 0.0000 0.0000  plane waves:    1130
 k-point 43 :   0.2121 0.0000 0.0000  plane waves:    1130
 k-point 44 :   0.2172 0.0000 0.0000  plane waves:    1126
 k-point 45 :   0.2222 0.0000 0.0000  plane waves:    1124
 k-point 46 :   0.2273 0.0000 0.0000  plane waves:    1128
 k-point 47 :   0.2323 0.0000 0.0000  plane waves:    1124
 k-point 48 :   0.2374 0.0000 0.0000  plane waves:    1128
 k-point 49 :   0.2424 0.0000 0.0000  plane waves:    1128
 k-point 50 :   0.2475 0.0000 0.0000  plane waves:    1122
 k-point 51 :   0.2525 0.0000 0.0000  plane waves:    1122
 k-point 52 :   0.2576 0.0000 0.0000  plane waves:    1122
 k-point 53 :   0.2626 0.0000 0.0000  plane waves:    1122
 k-point 54 :   0.2677 0.0000 0.0000  plane waves:    1118
 k-point 55 :   0.2727 0.0000 0.0000  plane waves:    1118
 k-point 56 :   0.2778 0.0000 0.0000  plane waves:    1118
 k-point 57 :   0.2828 0.0000 0.0000  plane waves:    1118
 k-point 58 :   0.2879 0.0000 0.0000  plane waves:    1118
 k-point 59 :   0.2929 0.0000 0.0000  plane waves:    1106
 k-point 60 :   0.2980 0.0000 0.0000  plane waves:    1110
 k-point 61 :   0.3030 0.0000 0.0000  plane waves:    1108
 k-point 62 :   0.3081 0.0000 0.0000  plane waves:    1106
 k-point 63 :   0.3131 0.0000 0.0000  plane waves:    1114
 k-point 64 :   0.3182 0.0000 0.0000  plane waves:    1114
 k-point 65 :   0.3232 0.0000 0.0000  plane waves:    1114
 k-point 66 :   0.3283 0.0000 0.0000  plane waves:    1118
 k-point 67 :   0.3333 0.0000 0.0000  plane waves:    1118
 k-point 68 :   0.3384 0.0000 0.0000  plane waves:    1114
 k-point 69 :   0.3434 0.0000 0.0000  plane waves:    1114
 k-point 70 :   0.3485 0.0000 0.0000  plane waves:    1114
 k-point 71 :   0.3535 0.0000 0.0000  plane waves:    1114
 k-point 72 :   0.3586 0.0000 0.0000  plane waves:    1106
 k-point 73 :   0.3636 0.0000 0.0000  plane waves:    1106
 k-point 74 :   0.3687 0.0000 0.0000  plane waves:    1106
 k-point 75 :   0.3737 0.0000 0.0000  plane waves:    1104
 k-point 76 :   0.3788 0.0000 0.0000  plane waves:    1104
 k-point 77 :   0.3838 0.0000 0.0000  plane waves:    1108
 k-point 78 :   0.3889 0.0000 0.0000  plane waves:    1108
 k-point 79 :   0.3939 0.0000 0.0000  plane waves:    1108
 k-point 80 :   0.3990 0.0000 0.0000  plane waves:    1112
 k-point 81 :   0.4040 0.0000 0.0000  plane waves:    1106
 k-point 82 :   0.4091 0.0000 0.0000  plane waves:    1106
 k-point 83 :   0.4141 0.0000 0.0000  plane waves:    1106
 k-point 84 :   0.4192 0.0000 0.0000  plane waves:    1106
 k-point 85 :   0.4242 0.0000 0.0000  plane waves:    1108
 k-point 86 :   0.4293 0.0000 0.0000  plane waves:    1108
 k-point 87 :   0.4343 0.0000 0.0000  plane waves:    1108
 k-point 88 :   0.4394 0.0000 0.0000  plane waves:    1108
 k-point 89 :   0.4444 0.0000 0.0000  plane waves:    1108
 k-point 90 :   0.4495 0.0000 0.0000  plane waves:    1108
 k-point 91 :   0.4545 0.0000 0.0000  plane waves:    1098
 k-point 92 :   0.4596 0.0000 0.0000  plane waves:    1102
 k-point 93 :   0.4646 0.0000 0.0000  plane waves:    1102
 k-point 94 :   0.4697 0.0000 0.0000  plane waves:    1102
 k-point 95 :   0.4747 0.0000 0.0000  plane waves:    1100
 k-point 96 :   0.4798 0.0000 0.0000  plane waves:    1100
 k-point 97 :   0.4848 0.0000 0.0000  plane waves:    1096
 k-point 98 :   0.4899 0.0000 0.0000  plane waves:    1094
 k-point 99 :   0.4949 0.0000 0.0000  plane waves:    1096
 k-point ** :   0.5000 0.0000 0.0000  plane waves:    1096
 k-point ** :   0.5000 0.0000 0.0000  plane waves:    1096
 k-point ** :   0.4983 0.0034 0.0000  plane waves:    1096
 k-point ** :   0.4966 0.0067 0.0000  plane waves:    1096
 k-point ** :   0.4949 0.0101 0.0000  plane waves:    1096
 k-point ** :   0.4933 0.0135 0.0000  plane waves:    1096
 k-point ** :   0.4916 0.0168 0.0000  plane waves:    1096
 k-point ** :   0.4899 0.0202 0.0000  plane waves:    1096
 k-point ** :   0.4882 0.0236 0.0000  plane waves:    1100
 k-point ** :   0.4865 0.0269 0.0000  plane waves:    1102
 k-point ** :   0.4848 0.0303 0.0000  plane waves:    1102
 k-point ** :   0.4832 0.0337 0.0000  plane waves:    1098
 k-point ** :   0.4815 0.0370 0.0000  plane waves:    1098
 k-point ** :   0.4798 0.0404 0.0000  plane waves:    1094
 k-point ** :   0.4781 0.0438 0.0000  plane waves:    1094
 k-point ** :   0.4764 0.0471 0.0000  plane waves:    1094
 k-point ** :   0.4747 0.0505 0.0000  plane waves:    1098
 k-point ** :   0.4731 0.0539 0.0000  plane waves:    1098
 k-point ** :   0.4714 0.0572 0.0000  plane waves:    1098
 k-point ** :   0.4697 0.0606 0.0000  plane waves:    1098
 k-point ** :   0.4680 0.0640 0.0000  plane waves:    1098
 k-point ** :   0.4663 0.0673 0.0000  plane waves:    1098
 k-point ** :   0.4646 0.0707 0.0000  plane waves:    1098
 k-point ** :   0.4630 0.0741 0.0000  plane waves:    1098
 k-point ** :   0.4613 0.0774 0.0000  plane waves:    1098
 k-point ** :   0.4596 0.0808 0.0000  plane waves:    1098
 k-point ** :   0.4579 0.0842 0.0000  plane waves:    1098
 k-point ** :   0.4562 0.0875 0.0000  plane waves:    1096
 k-point ** :   0.4545 0.0909 0.0000  plane waves:    1092
 k-point ** :   0.4529 0.0943 0.0000  plane waves:    1092
 k-point ** :   0.4512 0.0976 0.0000  plane waves:    1092
 k-point ** :   0.4495 0.1010 0.0000  plane waves:    1092
 k-point ** :   0.4478 0.1044 0.0000  plane waves:    1092
 k-point ** :   0.4461 0.1077 0.0000  plane waves:    1092
 k-point ** :   0.4444 0.1111 0.0000  plane waves:    1088
 k-point ** :   0.4428 0.1145 0.0000  plane waves:    1088
 k-point ** :   0.4411 0.1178 0.0000  plane waves:    1092
 k-point ** :   0.4394 0.1212 0.0000  plane waves:    1088
 k-point ** :   0.4377 0.1246 0.0000  plane waves:    1092
 k-point ** :   0.4360 0.1279 0.0000  plane waves:    1092
 k-point ** :   0.4343 0.1313 0.0000  plane waves:    1094
 k-point ** :   0.4327 0.1347 0.0000  plane waves:    1094
 k-point ** :   0.4310 0.1380 0.0000  plane waves:    1098
 k-point ** :   0.4293 0.1414 0.0000  plane waves:    1094
 k-point ** :   0.4276 0.1448 0.0000  plane waves:    1094
 k-point ** :   0.4259 0.1481 0.0000  plane waves:    1098
 k-point ** :   0.4242 0.1515 0.0000  plane waves:    1096
 k-point ** :   0.4226 0.1549 0.0000  plane waves:    1096
 k-point ** :   0.4209 0.1582 0.0000  plane waves:    1096
 k-point ** :   0.4192 0.1616 0.0000  plane waves:    1096
 k-point ** :   0.4175 0.1650 0.0000  plane waves:    1096
 k-point ** :   0.4158 0.1684 0.0000  plane waves:    1096
 k-point ** :   0.4141 0.1717 0.0000  plane waves:    1092
 k-point ** :   0.4125 0.1751 0.0000  plane waves:    1092
 k-point ** :   0.4108 0.1785 0.0000  plane waves:    1088
 k-point ** :   0.4091 0.1818 0.0000  plane waves:    1088
 k-point ** :   0.4074 0.1852 0.0000  plane waves:    1088
 k-point ** :   0.4057 0.1886 0.0000  plane waves:    1088
 k-point ** :   0.4040 0.1919 0.0000  plane waves:    1088
 k-point ** :   0.4024 0.1953 0.0000  plane waves:    1092
 k-point ** :   0.4007 0.1987 0.0000  plane waves:    1092
 k-point ** :   0.3990 0.2020 0.0000  plane waves:    1092
 k-point ** :   0.3973 0.2054 0.0000  plane waves:    1092
 k-point ** :   0.3956 0.2088 0.0000  plane waves:    1088
 k-point ** :   0.3939 0.2121 0.0000  plane waves:    1088
 k-point ** :   0.3923 0.2155 0.0000  plane waves:    1088
 k-point ** :   0.3906 0.2189 0.0000  plane waves:    1088
 k-point ** :   0.3889 0.2222 0.0000  plane waves:    1092
 k-point ** :   0.3872 0.2256 0.0000  plane waves:    1088
 k-point ** :   0.3855 0.2290 0.0000  plane waves:    1092
 k-point ** :   0.3838 0.2323 0.0000  plane waves:    1092
 k-point ** :   0.3822 0.2357 0.0000  plane waves:    1092
 k-point ** :   0.3805 0.2391 0.0000  plane waves:    1096
 k-point ** :   0.3788 0.2424 0.0000  plane waves:    1096
 k-point ** :   0.3771 0.2458 0.0000  plane waves:    1096
 k-point ** :   0.3754 0.2492 0.0000  plane waves:    1092
 k-point ** :   0.3737 0.2525 0.0000  plane waves:    1092
 k-point ** :   0.3721 0.2559 0.0000  plane waves:    1096
 k-point ** :   0.3704 0.2593 0.0000  plane waves:    1096
 k-point ** :   0.3687 0.2626 0.0000  plane waves:    1096
 k-point ** :   0.3670 0.2660 0.0000  plane waves:    1098
 k-point ** :   0.3653 0.2694 0.0000  plane waves:    1098
 k-point ** :   0.3636 0.2727 0.0000  plane waves:    1102
 k-point ** :   0.3620 0.2761 0.0000  plane waves:    1102
 k-point ** :   0.3603 0.2795 0.0000  plane waves:    1102
 k-point ** :   0.3586 0.2828 0.0000  plane waves:    1102
 k-point ** :   0.3569 0.2862 0.0000  plane waves:    1102
 k-point ** :   0.3552 0.2896 0.0000  plane waves:    1102
 k-point ** :   0.3535 0.2929 0.0000  plane waves:    1102
 k-point ** :   0.3519 0.2963 0.0000  plane waves:    1102
 k-point ** :   0.3502 0.2997 0.0000  plane waves:    1098
 k-point ** :   0.3485 0.3030 0.0000  plane waves:    1098
 k-point ** :   0.3468 0.3064 0.0000  plane waves:    1098
 k-point ** :   0.3451 0.3098 0.0000  plane waves:    1098
 k-point ** :   0.3434 0.3131 0.0000  plane waves:    1098
 k-point ** :   0.3418 0.3165 0.0000  plane waves:    1098
 k-point ** :   0.3401 0.3199 0.0000  plane waves:    1098
 k-point ** :   0.3384 0.3232 0.0000  plane waves:    1098
 k-point ** :   0.3367 0.3266 0.0000  plane waves:    1098
 k-point ** :   0.3350 0.3300 0.0000  plane waves:    1098
 k-point ** :   0.3333 0.3333 0.0000  plane waves:    1098
 k-point ** :   0.3333 0.3333 0.0000  plane waves:    1098
 k-point ** :   0.3300 0.3300 0.0000  plane waves:    1098
 k-point ** :   0.3266 0.3266 0.0000  plane waves:    1098
 k-point ** :   0.3232 0.3232 0.0000  plane waves:    1098
 k-point ** :   0.3199 0.3199 0.0000  plane waves:    1098
 k-point ** :   0.3165 0.3165 0.0000  plane waves:    1098
 k-point ** :   0.3131 0.3131 0.0000  plane waves:    1094
 k-point ** :   0.3098 0.3098 0.0000  plane waves:    1092
 k-point ** :   0.3064 0.3064 0.0000  plane waves:    1092
 k-point ** :   0.3030 0.3030 0.0000  plane waves:    1096
 k-point ** :   0.2997 0.2997 0.0000  plane waves:    1100
 k-point ** :   0.2963 0.2963 0.0000  plane waves:    1100
 k-point ** :   0.2929 0.2929 0.0000  plane waves:    1104
 k-point ** :   0.2896 0.2896 0.0000  plane waves:    1104
 k-point ** :   0.2862 0.2862 0.0000  plane waves:    1096
 k-point ** :   0.2828 0.2828 0.0000  plane waves:    1102
 k-point ** :   0.2795 0.2795 0.0000  plane waves:    1102
 k-point ** :   0.2761 0.2761 0.0000  plane waves:    1102
 k-point ** :   0.2727 0.2727 0.0000  plane waves:    1098
 k-point ** :   0.2694 0.2694 0.0000  plane waves:    1096
 k-point ** :   0.2660 0.2660 0.0000  plane waves:    1096
 k-point ** :   0.2626 0.2626 0.0000  plane waves:    1092
 k-point ** :   0.2593 0.2593 0.0000  plane waves:    1092
 k-point ** :   0.2559 0.2559 0.0000  plane waves:    1092
 k-point ** :   0.2525 0.2525 0.0000  plane waves:    1096
 k-point ** :   0.2492 0.2492 0.0000  plane waves:    1092
 k-point ** :   0.2458 0.2458 0.0000  plane waves:    1093
 k-point ** :   0.2424 0.2424 0.0000  plane waves:    1095
 k-point ** :   0.2391 0.2391 0.0000  plane waves:    1099
 k-point ** :   0.2357 0.2357 0.0000  plane waves:    1099
 k-point ** :   0.2323 0.2323 0.0000  plane waves:    1099
 k-point ** :   0.2290 0.2290 0.0000  plane waves:    1105
 k-point ** :   0.2256 0.2256 0.0000  plane waves:    1109
 k-point ** :   0.2222 0.2222 0.0000  plane waves:    1107
 k-point ** :   0.2189 0.2189 0.0000  plane waves:    1103
 k-point ** :   0.2155 0.2155 0.0000  plane waves:    1107
 k-point ** :   0.2121 0.2121 0.0000  plane waves:    1107
 k-point ** :   0.2088 0.2088 0.0000  plane waves:    1107
 k-point ** :   0.2054 0.2054 0.0000  plane waves:    1107
 k-point ** :   0.2020 0.2020 0.0000  plane waves:    1109
 k-point ** :   0.1987 0.1987 0.0000  plane waves:    1117
 k-point ** :   0.1953 0.1953 0.0000  plane waves:    1113
 k-point ** :   0.1919 0.1919 0.0000  plane waves:    1111
 k-point ** :   0.1886 0.1886 0.0000  plane waves:    1111
 k-point ** :   0.1852 0.1852 0.0000  plane waves:    1111
 k-point ** :   0.1818 0.1818 0.0000  plane waves:    1111
 k-point ** :   0.1785 0.1785 0.0000  plane waves:    1107
 k-point ** :   0.1751 0.1751 0.0000  plane waves:    1107
 k-point ** :   0.1717 0.1717 0.0000  plane waves:    1109
 k-point ** :   0.1684 0.1684 0.0000  plane waves:    1115
 k-point ** :   0.1650 0.1650 0.0000  plane waves:    1119
 k-point ** :   0.1616 0.1616 0.0000  plane waves:    1115
 k-point ** :   0.1582 0.1582 0.0000  plane waves:    1115
 k-point ** :   0.1549 0.1549 0.0000  plane waves:    1115
 k-point ** :   0.1515 0.1515 0.0000  plane waves:    1119
 k-point ** :   0.1481 0.1481 0.0000  plane waves:    1123
 k-point ** :   0.1448 0.1448 0.0000  plane waves:    1123
 k-point ** :   0.1414 0.1414 0.0000  plane waves:    1123
 k-point ** :   0.1380 0.1380 0.0000  plane waves:    1123
 k-point ** :   0.1347 0.1347 0.0000  plane waves:    1123
 k-point ** :   0.1313 0.1313 0.0000  plane waves:    1123
 k-point ** :   0.1279 0.1279 0.0000  plane waves:    1123
 k-point ** :   0.1246 0.1246 0.0000  plane waves:    1123
 k-point ** :   0.1212 0.1212 0.0000  plane waves:    1125
 k-point ** :   0.1178 0.1178 0.0000  plane waves:    1129
 k-point ** :   0.1145 0.1145 0.0000  plane waves:    1129
 k-point ** :   0.1111 0.1111 0.0000  plane waves:    1129
 k-point ** :   0.1077 0.1077 0.0000  plane waves:    1129
 k-point ** :   0.1044 0.1044 0.0000  plane waves:    1129
 k-point ** :   0.1010 0.1010 0.0000  plane waves:    1129
 k-point ** :   0.0976 0.0976 0.0000  plane waves:    1129
 k-point ** :   0.0943 0.0943 0.0000  plane waves:    1129
 k-point ** :   0.0909 0.0909 0.0000  plane waves:    1119
 k-point ** :   0.0875 0.0875 0.0000  plane waves:    1123
 k-point ** :   0.0842 0.0842 0.0000  plane waves:    1127
 k-point ** :   0.0808 0.0808 0.0000  plane waves:    1127
 k-point ** :   0.0774 0.0774 0.0000  plane waves:    1127
 k-point ** :   0.0741 0.0741 0.0000  plane waves:    1119
 k-point ** :   0.0707 0.0707 0.0000  plane waves:    1119
 k-point ** :   0.0673 0.0673 0.0000  plane waves:    1117
 k-point ** :   0.0640 0.0640 0.0000  plane waves:    1119
 k-point ** :   0.0606 0.0606 0.0000  plane waves:    1119
 k-point ** :   0.0572 0.0572 0.0000  plane waves:    1119
 k-point ** :   0.0539 0.0539 0.0000  plane waves:    1123
 k-point ** :   0.0505 0.0505 0.0000  plane waves:    1119
 k-point ** :   0.0471 0.0471 0.0000  plane waves:    1119
 k-point ** :   0.0438 0.0438 0.0000  plane waves:    1123
 k-point ** :   0.0404 0.0404 0.0000  plane waves:    1127
 k-point ** :   0.0370 0.0370 0.0000  plane waves:    1127
 k-point ** :   0.0337 0.0337 0.0000  plane waves:    1127
 k-point ** :   0.0303 0.0303 0.0000  plane waves:    1127
 k-point ** :   0.0269 0.0269 0.0000  plane waves:    1127
 k-point ** :   0.0236 0.0236 0.0000  plane waves:    1127
 k-point ** :   0.0202 0.0202 0.0000  plane waves:    1127
 k-point ** :   0.0168 0.0168 0.0000  plane waves:    1123
 k-point ** :   0.0135 0.0135 0.0000  plane waves:    1127
 k-point ** :   0.0101 0.0101 0.0000  plane waves:    1123
 k-point ** :   0.0067 0.0067 0.0000  plane waves:    1123
 k-point ** :   0.0034 0.0034 0.0000  plane waves:    1117
 k-point ** :   0.0000 0.0000 0.0000  plane waves:    1117

 maximum and minimum number of plane-waves per node :       291      261

 maximum number of plane-waves:      1130
 maximum index in each direction: 
   IXMAX=    4   IYMAX=    4   IZMAX=   15
   IXMIN=   -4   IYMIN=   -4   IZMIN=  -15


 parallel 3D FFT for wavefunctions:
    minimum data exchange during FFTs selected (reduces bandwidth)
 parallel 3D FFT for charge:
    minimum data exchange during FFTs selected (reduces bandwidth)


 total amount of memory used by VASP MPI-rank0    42741. kBytes
=======================================================================

   base      :      30000. kBytes
   nonl-proj :       5538. kBytes
   fftplans  :        463. kBytes
   grid      :        898. kBytes
   one-center:          6. kBytes
   wavefun   :       5836. kBytes
 
     INWAV:  cpu time    0.0000: real time    0.0001
 initial charge density was supplied:
 number of electron       7.9999998 magnetization       0.0000000
 keeping initial charge density in first step


--------------------------------------------------------------------------------------------------------


 Maximum index for augmentation-charges            0 (set IRDMAX)


--------------------------------------------------------------------------------------------------------


 First call to EWALD:  gamma=   0.503
 Maximum number of real-space cells 4x 4x 1
 Maximum number of reciprocal cells 2x 2x 6

    FEWALD:  cpu time    0.0019: real time    0.0019


--------------------------------------- Iteration      1(   1)  ---------------------------------------


    POTLOK:  cpu time    0.0156: real time    0.0521
    SETDIJ:  cpu time    0.0028: real time    0.0030
     EDDAV:  cpu time    2.9720: real time    2.9737
       DOS:  cpu time    0.0042: real time    0.0043
    --------------------------------------------
      LOOP:  cpu time    2.9947: real time    3.0331

 eigenvalue-minimisations  : 38448
 total energy-change (2. order) : 0.1041669E+02  (-0.3122116E+03)
 number of electron       7.9999998 magnetization       0.0000000
 augmentation part        7.9999998 magnetization       0.0000000

 Free energy of the ion-electron system (eV)
  ---------------------------------------------------
  alpha Z        PSCENC =         7.51515541
  Ewald energy   TEWEN  =       221.74111116
  -Hartree energ DENC   =      -490.06188059
  -exchange      EXHF   =         0.00000000
  -V(xc)+E(xc)   XCENC  =        27.53515706
  PAW double counting   =       835.54715116     -836.91479405
  entropy T*S    EENTRO =        -0.00101367
  eigenvalues    EBANDS =       -49.24104227
  atomic energy  EATOM  =       294.29684335
  Solvation  Ediel_sol  =         0.00000000
  ---------------------------------------------------
  free energy    TOTEN  =        10.41668756 eV

  energy without entropy =       10.41770123  energy(sigma->0) =       10.41719440


--------------------------------------------------------------------------------------------------------




--------------------------------------- Iteration      1(   2)  ---------------------------------------


     EDDAV:  cpu time    4.1163: real time    4.1224
       DOS:  cpu time    0.0043: real time    0.0043
    --------------------------------------------
      LOOP:  cpu time    4.1206: real time    4.1267

 eigenvalue-minimisations  : 51312
 total energy-change (2. order) :-0.2729998E+02  (-0.2628429E+02)
 number of electron       7.9999998 magnetization       0.0000000
 augmentation part        7.9999998 magnetization       0.0000000

 Free energy of the ion-electron system (eV)
  ---------------------------------------------------
  alpha Z        PSCENC =         7.51515541
  Ewald energy   TEWEN  =       221.74111116
  -Hartree energ DENC   =      -490.06188059
  -exchange      EXHF   =         0.00000000
  -V(xc)+E(xc)   XCENC  =        27.53515706
  PAW double counting   =       835.54715116     -836.91479405
  entropy T*S    EENTRO =        -0.00042418
  eigenvalues    EBANDS =       -76.54160838
  atomic energy  EATOM  =       294.29684335
  Solvation  Ediel_sol  =         0.00000000
  ---------------------------------------------------
  free energy    TOTEN  =       -16.88328906 eV

  energy without entropy =      -16.88286488  energy(sigma->0) =      -16.88307697


--------------------------------------------------------------------------------------------------------




--------------------------------------- Iteration      1(   3)  ---------------------------------------


     EDDAV:  cpu time    3.7381: real time    3.7403
       DOS:  cpu time    0.0042: real time    0.0042
    --------------------------------------------
      LOOP:  cpu time    3.7423: real time    3.7444

 eigenvalue-minimisations  : 47040
 total energy-change (2. order) :-0.4878865E+00  (-0.4875305E+00)
 number of electron       7.9999998 magnetization       0.0000000
 augmentation part        7.9999998 magnetization       0.0000000

 Free energy of the ion-electron system (eV)
  ---------------------------------------------------
  alpha Z        PSCENC =         7.51515541
  Ewald energy   TEWEN  =       221.74111116
  -Hartree energ DENC   =      -490.06188059
  -exchange      EXHF   =         0.00000000
  -V(xc)+E(xc)   XCENC  =        27.53515706
  PAW double counting   =       835.54715116     -836.91479405
  entropy T*S    EENTRO =        -0.00046684
  eigenvalues    EBANDS =       -77.02945219
  atomic energy  EATOM  =       294.29684335
  Solvation  Ediel_sol  =         0.00000000
  ---------------------------------------------------
  free energy    TOTEN  =       -17.37117554 eV

  energy without entropy =      -17.37070869  energy(sigma->0) =      -17.37094211


--------------------------------------------------------------------------------------------------------




--------------------------------------- Iteration      1(   4)  ---------------------------------------


     EDDAV:  cpu time    4.2035: real time    4.2075
       DOS:  cpu time    0.0042: real time    0.0042
    --------------------------------------------
      LOOP:  cpu time    4.2077: real time    4.2117

 eigenvalue-minimisations  : 51520
 total energy-change (2. order) :-0.1072656E-02  (-0.1072640E-02)
 number of electron       7.9999998 magnetization       0.0000000
 augmentation part        7.9999998 magnetization       0.0000000

 Free energy of the ion-electron system (eV)
  ---------------------------------------------------
  alpha Z        PSCENC =         7.51515541
  Ewald energy   TEWEN  =       221.74111116
  -Hartree energ DENC   =      -490.06188059
  -exchange      EXHF   =         0.00000000
  -V(xc)+E(xc)   XCENC  =        27.53515706
  PAW double counting   =       835.54715116     -836.91479405
  entropy T*S    EENTRO =        -0.00046685
  eigenvalues    EBANDS =       -77.03052484
  atomic energy  EATOM  =       294.29684335
  Solvation  Ediel_sol  =         0.00000000
  ---------------------------------------------------
  free energy    TOTEN  =       -17.37224819 eV

  energy without entropy =      -17.37178134  energy(sigma->0) =      -17.37201477


--------------------------------------------------------------------------------------------------------




--------------------------------------- Iteration      1(   5)  ---------------------------------------


     EDDAV:  cpu time    3.6921: real time    3.6943
       DOS:  cpu time    0.0044: real time    0.0044
    --------------------------------------------
      LOOP:  cpu time    3.6965: real time    3.6987

 eigenvalue-minimisations  : 46256
 total energy-change (2. order) :-0.4083087E-05  (-0.4083027E-05)
 number of electron       7.9999998 magnetization       0.0000000
 augmentation part        7.9999998 magnetization       0.0000000

 Free energy of the ion-electron system (eV)
  ---------------------------------------------------
  alpha Z        PSCENC =         7.51515541
  Ewald energy   TEWEN  =       221.74111116
  -Hartree energ DENC   =      -490.06188059
  -exchange      EXHF   =         0.00000000
  -V(xc)+E(xc)   XCENC  =        27.53515706
  PAW double counting   =       835.54715116     -836.91479405
  entropy T*S    EENTRO =        -0.00046685
  eigenvalues    EBANDS =       -77.03052893
  atomic energy  EATOM  =       294.29684335
  Solvation  Ediel_sol  =         0.00000000
  ---------------------------------------------------
  free energy    TOTEN  =       -17.37225228 eV

  energy without entropy =      -17.37178543  energy(sigma->0) =      -17.37201885


--------------------------------------------------------------------------------------------------------




--------------------------------------- Iteration      1(   6)  ---------------------------------------


     EDDAV:  cpu time    4.1059: real time    4.1084
       DOS:  cpu time    0.0043: real time    0.0043
    --------------------------------------------
      LOOP:  cpu time    4.1102: real time    4.1127

 eigenvalue-minimisations  : 50592
 total energy-change (2. order) :-0.2137710E-07  (-0.2136018E-07)
 number of electron       7.9999998 magnetization       0.0000000
 augmentation part        7.9999998 magnetization       0.0000000

 Free energy of the ion-electron system (eV)
  ---------------------------------------------------
  alpha Z        PSCENC =         7.51515541
  Ewald energy   TEWEN  =       221.74111116
  -Hartree energ DENC   =      -490.06188059
  -exchange      EXHF   =         0.00000000
  -V(xc)+E(xc)   XCENC  =        27.53515706
  PAW double counting   =       835.54715116     -836.91479405
  entropy T*S    EENTRO =        -0.00046685
  eigenvalues    EBANDS =       -77.03052895
  atomic energy  EATOM  =       294.29684335
  Solvation  Ediel_sol  =         0.00000000
  ---------------------------------------------------
  free energy    TOTEN  =       -17.37225230 eV

  energy without entropy =      -17.37178545  energy(sigma->0) =      -17.37201887


--------------------------------------------------------------------------------------------------------




--------------------------------------- Iteration      1(   7)  ---------------------------------------


     EDDAV:  cpu time    3.5152: real time    3.5173
       DOS:  cpu time    0.0043: real time    0.0043
    --------------------------------------------
      LOOP:  cpu time    3.5196: real time    3.5216

 eigenvalue-minimisations  : 43552
 total energy-change (2. order) :-0.5309175E-10  (-0.1279761E-09)
 number of electron       7.9999998 magnetization       0.0000000
 augmentation part        7.9999998 magnetization       0.0000000

 Free energy of the ion-electron system (eV)
  ---------------------------------------------------
  alpha Z        PSCENC =         7.51515541
  Ewald energy   TEWEN  =       221.74111116
  -Hartree energ DENC   =      -490.06188059
  -exchange      EXHF   =         0.00000000
  -V(xc)+E(xc)   XCENC  =        27.53515706
  PAW double counting   =       835.54715116     -836.91479405
  entropy T*S    EENTRO =        -0.00046685
  eigenvalues    EBANDS =       -77.03052895
  atomic energy  EATOM  =       294.29684335
  Solvation  Ediel_sol  =         0.00000000
  ---------------------------------------------------
  free energy    TOTEN  =       -17.37225230 eV

  energy without entropy =      -17.37178545  energy(sigma->0) =      -17.37201887


--------------------------------------------------------------------------------------------------------




 average (electrostatic) potential at core
  the test charge radii are     0.6991
  (the norm of the test charge is              1.0000)
       1 -56.0704       2 -56.0704
 
 
 
 E-fermi :  -0.6341     XC(G=0):  -5.0835     alpha+bet : -4.5844


 spin component 1

 k-point     1 :       0.0000    0.0000    0.0000
  band No.  band energies     occupation 
      1     -20.1347      1.00000
      2      -8.2390      1.00000
      3      -3.6627      1.00000
      4      -3.6627      1.00000
      5       2.3643      0.00000
      6       4.8272      0.00000
      7       6.6755      0.00000
      8       7.6785      0.00000
      9       7.6786      0.00000
     10      10.7671      0.00000
     11      11.8341      0.00000
     12      13.6849      0.00000
     13      16.5420      0.00000
     14      21.8418      0.00000
     15      25.9844      0.00000
     16      27.5348      0.00000
     17      27.5348      0.00000
     18      30.9590      0.00000
     19      30.9590      0.00000
     20      31.2620      0.00000
     21      32.9719      0.00000
     22      34.3957      0.00000
[...]
     27      36.2249      0.00000
     28      36.6592      0.00000
     29      36.6764      0.00000
     30      37.5548      0.00000
     31      37.7562      0.00000
     32      38.4165      0.00000

 k-point   293 :       0.0236    0.0236    0.0000
  band No.  band energies     occupation 
      1     -20.0953      1.00000
      2      -8.1920      1.00000
      3      -3.8243      1.00000
      4      -3.7493      1.00000
      5       2.4176      0.00000
      6       4.8794      0.00000
      7       6.7240      0.00000
      8       7.7076      0.00000
      9       7.8467      0.00000
     10      10.6291      0.00000
     11      11.9043      0.00000
     12      13.7292      0.00000
     13      16.5928      0.00000
     14      21.9707      0.00000
     15      25.8235      0.00000
     16      27.1657      0.00000
     17      27.2265      0.00000
     18      30.6908      0.00000
     19      31.3054      0.00000
     20      31.4630      0.00000
     21      32.5684      0.00000
     22      32.8520      0.00000
     23      33.9524      0.00000
     24      34.9096      0.00000
     25      35.0407      0.00000
     26      35.4747      0.00000
     27      36.4114      0.00000
     28      36.8069      0.00000
     29      36.9663      0.00000
     30      37.3301      0.00000
     31      37.5621      0.00000
     32      38.4086      0.00000

 k-point   294 :       0.0202    0.0202    0.0000
  band No.  band energies     occupation 
      1     -20.1058      1.00000
      2      -8.2044      1.00000
      3      -3.7820      1.00000
      4      -3.7264      1.00000
      5       2.4034      0.00000
      6       4.8655      0.00000
      7       6.7109      0.00000
      8       7.6997      0.00000
      9       7.8029      0.00000
     10      10.6654      0.00000
     11      11.8854      0.00000
     12      13.7174      0.00000
     13      16.5792      0.00000
     14      21.9368      0.00000
     15      25.8754      0.00000
     16      27.2461      0.00000
     17      27.3002      0.00000
     18      30.7363      0.00000
     19      31.2938      0.00000
     20      31.3383      0.00000
     21      32.8665      0.00000
     22      33.1322      0.00000
     23      33.7266      0.00000
     24      34.9170      0.00000
     25      35.0313      0.00000
     26      35.6961      0.00000
     27      36.4543      0.00000
     28      36.8321      0.00000
     29      37.2534      0.00000
     30      37.2568      0.00000
     31      37.4924      0.00000
     32      38.4074      0.00000

 k-point   295 :       0.0168    0.0168    0.0000
  band No.  band energies     occupation 
      1     -20.1146      1.00000
      2      -8.2150      1.00000
      3      -3.7459      1.00000
      4      -3.7070      1.00000
      5       2.3913      0.00000
      6       4.8538      0.00000
      7       6.6998      0.00000
      8       7.6932      0.00000
      9       7.7654      0.00000
     10      10.6964      0.00000
     11      11.8696      0.00000
     12      13.7075      0.00000
     13      16.5676      0.00000
     14      21.9080      0.00000
     15      25.9139      0.00000
     16      27.3239      0.00000
     17      27.3666      0.00000
     18      30.7851      0.00000
     19      31.2282      0.00000
     20      31.2839      0.00000
     21      33.1643      0.00000
     22      33.4080      0.00000
     23      33.5204      0.00000
     24      34.9193      0.00000
     25      35.0210      0.00000
     26      35.9029      0.00000
     27      36.3028      0.00000
     28      36.6917      0.00000
     29      37.3751      0.00000
     30      37.5462      0.00000
     31      37.5918      0.00000
     32      38.4138      0.00000

 k-point   296 :       0.0135    0.0135    0.0000
  band No.  band energies     occupation 
      1     -20.1218      1.00000
      2      -8.2236      1.00000
      3      -3.7162      1.00000
      4      -3.6911      1.00000
      5       2.3815      0.00000
      6       4.8442      0.00000
      7       6.6907      0.00000
      8       7.6878      0.00000
      9       7.7343      0.00000
     10      10.7214      0.00000
     11      11.8567      0.00000
     12      13.6993      0.00000
     13      16.5582      0.00000
     14      21.8843      0.00000
     15      25.9418      0.00000
     16      27.3944      0.00000
     17      27.4241      0.00000
     18      30.8351      0.00000
     19      31.1345      0.00000
     20      31.2758      0.00000
     21      33.3385      0.00000
     22      33.4601      0.00000
     23      33.6755      0.00000
     24      34.9167      0.00000
     25      35.0092      0.00000
     26      36.0593      0.00000
     27      36.0890      0.00000
     28      36.4787      0.00000
     29      37.5932      0.00000
     30      37.7696      0.00000
     31      37.8306      0.00000
     32      38.4286      0.00000

 k-point   297 :       0.0101    0.0101    0.0000
  band No.  band energies     occupation 
      1     -20.1274      1.00000
      2      -8.2303      1.00000
      3      -3.6929      1.00000
      4      -3.6787      1.00000
      5       2.3738      0.00000
      6       4.8368      0.00000
      7       6.6837      0.00000
      8       7.6837      0.00000
      9       7.7102      0.00000
     10      10.7412      0.00000
     11      11.8468      0.00000
     12      13.6930      0.00000
     13      16.5508      0.00000
     14      21.8658      0.00000
     15      25.9615      0.00000
     16      27.4534      0.00000
     17      27.4711      0.00000
     18      30.8824      0.00000
     19      31.0593      0.00000
     20      31.2695      0.00000
     21      33.1862      0.00000
     22      33.7511      0.00000
     23      33.9284      0.00000
     24      34.9088      0.00000
     25      34.9936      0.00000
     26      35.7951      0.00000
     27      36.2475      0.00000
     28      36.2563      0.00000
     29      37.8396      0.00000
     30      37.9682      0.00000
     31      38.1008      0.00000
     32      38.4517      0.00000

 k-point   298 :       0.0067    0.0067    0.0000
  band No.  band energies     occupation 
      1     -20.1315      1.00000
      2      -8.2351      1.00000
      3      -3.6761      1.00000
      4      -3.6698      1.00000
      5       2.3684      0.00000
      6       4.8314      0.00000
      7       6.6786      0.00000
      8       7.6808      0.00000
      9       7.6926      0.00000
     10      10.7553      0.00000
     11      11.8397      0.00000
     12      13.6884      0.00000
     13      16.5456      0.00000
     14      21.8525      0.00000
     15      25.9744      0.00000
     16      27.4979      0.00000
     17      27.5060      0.00000
     18      30.9224      0.00000
     19      31.0041      0.00000
     20      31.2650      0.00000
     21      33.0702      0.00000
     22      34.0301      0.00000
     23      34.1540      0.00000
     24      34.8936      0.00000
     25      34.9661      0.00000
     26      35.5453      0.00000
     27      36.0564      0.00000
     28      36.3698      0.00000
     29      38.0876      0.00000
     30      38.1657      0.00000
     31      38.3317      0.00000
     32      38.4802      0.00000

 k-point   299 :       0.0034    0.0034    0.0000
  band No.  band energies     occupation 
      1     -20.1338      1.00000
      2      -8.2380      1.00000
      3      -3.6661      1.00000
      4      -3.6645      1.00000
      5       2.3651      0.00000
      6       4.8283      0.00000
      7       6.6756      0.00000
      8       7.6792      0.00000
      9       7.6821      0.00000
     10      10.7642      0.00000
     11      11.8355      0.00000
     12      13.6857      0.00000
     13      16.5424      0.00000
     14      21.8445      0.00000
     15      25.9819      0.00000
     16      27.5254      0.00000
     17      27.5275      0.00000
     18      30.9494      0.00000
     19      30.9704      0.00000
     20      31.2623      0.00000
     21      32.9970      0.00000
     22      34.2745      0.00000
     23      34.3260      0.00000
     24      34.8718      0.00000
     25      34.9106      0.00000
     26      35.3560      0.00000
     27      35.9111      0.00000
     28      36.4478      0.00000
     29      38.3151      0.00000
     30      38.3451      0.00000
     31      38.4752      0.00000
     32      38.5062      0.00000

 k-point   300 :       0.0000    0.0000    0.0000
  band No.  band energies     occupation 
      1     -20.1346      1.00000
      2      -8.2390      1.00000
      3      -3.6627      1.00000
      4      -3.6627      1.00000
      5       2.3640      0.00000
      6       4.8272      0.00000
      7       6.6746      0.00000
      8       7.6785      0.00000
      9       7.6786      0.00000
     10      10.7671      0.00000
     11      11.8341      0.00000
     12      13.6848      0.00000
     13      16.5414      0.00000
     14      21.8418      0.00000
     15      25.9843      0.00000
     16      27.5348      0.00000
     17      27.5348      0.00000
     18      30.9590      0.00000
     19      30.9590      0.00000
     20      31.2614      0.00000
     21      32.9719      0.00000
     22      34.3955      0.00000
     23      34.3955      0.00000
     24      34.8584      0.00000
     25      34.8584      0.00000
     26      35.2866      0.00000
     27      35.8564      0.00000
     28      36.4745      0.00000
     29      38.4443      0.00000
     30      38.4445      0.00000
     31      38.5171      0.00000
     32      38.5174      0.00000


--------------------------------------------------------------------------------------------------------


 soft charge-density along one line, spin component           1
         0         1         2         3         4         5         6         7         8         9
 total charge-density along one line
 
 soft charge-density along one line, spin component           2
         0         1         2         3         4         5         6         7         8         9
 total charge-density along one line
 
 pseudopotential strength for first ion, spin component:           1
 10.090   0.000  13.415   0.000  -0.000   0.000  -0.000   0.000   0.000   0.000   0.000   0.000   0.000   0.000  -0.000   0.000
 13.415   0.000  17.835   0.000  -0.000   0.000  -0.000   0.000   0.000   0.000   0.000   0.000   0.000   0.000  -0.000   0.000
 -0.000   0.000  -0.000   0.000  -4.234   0.000   0.000   0.000  -0.000   0.000   8.283   0.000  -0.000   0.000   0.000   0.000
 -0.000   0.000  -0.000   0.000   0.000   0.000  -4.227   0.000  -0.000   0.000  -0.000   0.000   8.273   0.000   0.000   0.000
  0.000   0.000   0.000   0.000  -0.000   0.000  -0.000   0.000  -4.234   0.000   0.000   0.000   0.000   0.000   8.283   0.000
  0.000   0.000   0.000   0.000   8.283   0.000  -0.000   0.000   0.000   0.000 -18.332   0.000   0.000   0.000  -0.000   0.000
  0.000   0.000   0.000   0.000  -0.000   0.000   8.273   0.000   0.000   0.000   0.000   0.000 -18.323   0.000  -0.000   0.000
 -0.000   0.000  -0.000   0.000   0.000   0.000   0.000   0.000   8.283   0.000  -0.000   0.000  -0.000   0.000 -18.332   0.000
 pseudopotential strength for first ion, spin component:           2
 10.090   0.000  13.415   0.000  -0.000   0.000  -0.000   0.000   0.000   0.000   0.000   0.000   0.000   0.000  -0.000   0.000
 13.415   0.000  17.835   0.000  -0.000   0.000  -0.000   0.000   0.000   0.000   0.000   0.000   0.000   0.000  -0.000   0.000
 -0.000   0.000  -0.000   0.000  -4.234   0.000   0.000   0.000  -0.000   0.000   8.283   0.000  -0.000   0.000   0.000   0.000
 -0.000   0.000  -0.000   0.000   0.000   0.000  -4.227   0.000  -0.000   0.000  -0.000   0.000   8.273   0.000   0.000   0.000
  0.000   0.000   0.000   0.000  -0.000   0.000  -0.000   0.000  -4.234   0.000   0.000   0.000   0.000   0.000   8.283   0.000
  0.000   0.000   0.000   0.000   8.283   0.000  -0.000   0.000   0.000   0.000 -18.332   0.000   0.000   0.000  -0.000   0.000
  0.000   0.000   0.000   0.000  -0.000   0.000   8.273   0.000   0.000   0.000   0.000   0.000 -18.323   0.000  -0.000   0.000
 -0.000   0.000  -0.000   0.000   0.000   0.000   0.000   0.000   8.283   0.000  -0.000   0.000  -0.000   0.000 -18.332   0.000
 total augmentation occupancy for first ion, spin component:           1
  2.000   0.000   0.000   0.000   0.000   0.000   0.000   0.000
  0.000   0.000   0.000   0.000   0.000   0.000   0.000   0.000
  0.000   0.000   0.667   0.000   0.000   0.000   0.000   0.000
  0.000   0.000   0.000   0.667   0.000   0.000   0.000   0.000
  0.000   0.000   0.000   0.000   0.667   0.000   0.000   0.000
  0.000   0.000   0.000   0.000   0.000   0.000   0.000   0.000
  0.000   0.000   0.000   0.000   0.000   0.000   0.000   0.000
  0.000   0.000   0.000   0.000   0.000   0.000   0.000   0.000
 total augmentation occupancy for first ion, spin component:           2
  0.000   0.000   0.000   0.000   0.000   0.000   0.000   0.000
  0.000   0.000   0.000   0.000   0.000   0.000   0.000   0.000
  0.000   0.000   0.000   0.000   0.000   0.000   0.000   0.000
  0.000   0.000   0.000   0.000   0.000   0.000   0.000   0.000
  0.000   0.000   0.000   0.000   0.000   0.000   0.000   0.000
  0.000   0.000   0.000   0.000   0.000   0.000   0.000   0.000
  0.000   0.000   0.000   0.000   0.000   0.000   0.000   0.000
  0.000   0.000   0.000   0.000   0.000   0.000   0.000   0.000


------------------------ aborting loop because EDIFF is reached ----------------------------------------


 


 total charge     
 
# of ion       s       p       d       tot
------------------------------------------
    1        0.852   1.809   0.000   2.661
    2        0.852   1.809   0.000   2.661
--------------------------------------------------
tot          1.704   3.618   0.000   5.322
 


 magnetization (x)
 
# of ion       s       p       d       tot
------------------------------------------
    1       -0.000   0.000   0.000   0.000
    2       -0.000   0.000   0.000   0.000
--------------------------------------------------
tot         -0.000   0.000   0.000   0.000
 
    CHARGE:  cpu time    0.0340: real time    0.0341
    FORLOC:  cpu time    0.0001: real time    0.0001
    FORNL :  cpu time    0.0430: real time    0.0430
    STRESS:  cpu time    0.1729: real time    0.1731
    FORCOR:  cpu time    0.0074: real time    0.0074
    FORHAR:  cpu time    0.0009: real time    0.0009
    OFIELD:  cpu time    0.0000: real time    0.0000

  FORCE on cell =-STRESS in cart. coord.  units (eV):
  Direction    XX          YY          ZZ          XY          YZ          ZX
  --------------------------------------------------------------------------------------
  Alpha Z     7.51516     7.51516     7.51516
  Ewald     490.48352   490.48352  -759.22596    -0.00000     0.00000     0.00000
  Hartree   479.92072   479.92072  -468.18663    -0.00000    -0.00000    -0.00000
  E(xc)     -29.69976   -29.69977   -30.81201    -0.00000     0.00000     0.00000
  Local   -1060.20862 -1060.20863  1121.23878    -0.00001    -0.00000    -0.00000
  n-local    -7.91414    -8.14905    -7.39041    -0.11181     0.00000     0.00000
  augment    -0.81952    -0.81952    -0.75380     0.00001    -0.00000    -0.00000
  Kinetic   122.52038   122.26717   138.38560     3.18729    -0.00000     0.00000
  Fock        0.00000     0.00000     0.00000     0.00000     0.00000     0.00000
  -------------------------------------------------------------------------------------
  Total       1.55366     1.55366     0.77074     0.00000     0.00000     0.00000
  in kB      56.93169    56.93169    28.24257     0.00000     0.00000     0.00000
  external pressure =       47.37 kB  Pullay stress =        0.00 kB


 VOLUME and BASIS-vectors are now :
 -----------------------------------------------------------------------------
  energy-cutoff  :      500.00
  volume of cell :       43.72
      direct lattice vectors                 reciprocal lattice vectors
     2.467195989  0.000000000  0.000000000     0.405318428  0.234010704  0.000000000
    -1.233597995  2.136654403  0.000000000    -0.000000000  0.468021407  0.000000000
     0.000000000  0.000000000  8.294196092     0.000000000  0.000000000  0.120566236

  length of vectors
     2.467195989  2.467195989  8.294196092     0.468021407  0.468021407  0.120566236


 FORCES acting on ions
    electron-ion (+dipol)            ewald-force                    non-local-force                 convergence-correction
 -----------------------------------------------------------------------------------------------
   0.709E-06 -.409E-06 -.107E-11   0.129E-10 -.105E-10 -.156E-18   0.153E-15 0.139E-16 0.207E-24   -.975E-04 0.563E-04 0.885E-12
   -.709E-06 0.409E-06 0.349E-12   -.129E-10 0.105E-10 0.156E-18   -.111E-15 -.139E-16 -.414E-24   0.975E-04 -.563E-04 0.875E-12
 -----------------------------------------------------------------------------------------------
   -.874E-14 -.141E-13 -.720E-12   0.408E-15 0.365E-14 0.000E+00   0.416E-16 0.000E+00 -.207E-24   0.195E-14 0.581E-14 0.176E-11
 
 
 POSITION                                       TOTAL-FORCE (eV/Angst)
 -----------------------------------------------------------------------------------
      1.23360      0.71222      4.14710         0.000000      0.000000     -0.000000
      0.00000      1.42444      4.14710        -0.000000     -0.000000      0.000000
 -----------------------------------------------------------------------------------
    total drift:                               -0.000000     -0.000000      0.000000


--------------------------------------------------------------------------------------------------------



  FREE ENERGIE OF THE ION-ELECTRON SYSTEM (eV)
  ---------------------------------------------------
  free  energy   TOTEN  =       -17.37225230 eV

  energy  without entropy=      -17.37178545  energy(sigma->0) =      -17.37201887
 


--------------------------------------------------------------------------------------------------------


    POTLOK:  cpu time    0.0096: real time    0.0096


--------------------------------------------------------------------------------------------------------


     LOOP+:  cpu time   26.6895: real time   26.8016
    4ORBIT:  cpu time    0.0000: real time    0.0000
 


 total charge     
 
# of ion       s       p       d       tot
------------------------------------------
    1        0.852   1.809   0.000   2.661
    2        0.852   1.809   0.000   2.661
--------------------------------------------------
tot          1.704   3.618   0.000   5.322
 


 magnetization (x)
 
# of ion       s       p       d       tot
------------------------------------------
    1       -0.000   0.000   0.000   0.000
    2       -0.000   0.000   0.000   0.000
--------------------------------------------------
tot         -0.000   0.000   0.000   0.000
 

 total amount of memory used by VASP MPI-rank0    42741. kBytes
=======================================================================

   base      :      30000. kBytes
   nonl-proj :       5538. kBytes
   fftplans  :        463. kBytes
   grid      :        898. kBytes
   one-center:          6. kBytes
   wavefun   :       5836. kBytes
 
  
  
 General timing and accounting informations for this job:
 ========================================================
  
                  Total CPU time used (sec):       31.525
                            User time (sec):       30.518
                          System time (sec):        1.008
                         Elapsed time (sec):       31.958
  
                   Maximum memory used (kb):       95304.
                   Average memory used (kb):           0.
  
                          Minor page faults:         7662
                          Major page faults:            0
                 Voluntary context switches:          284
